! Touchstone file exported from HFSS 2024.1.0
!        File:           C:/Users/phobo/Documents/Ansoft/hfss_resonance_simulator.aedt
!        Generated:      08:37:41 PM May 27, 2025
!        Design:         Resonator_7252612e-6GHz_2_ports_v8
!        Project:        hfss_resonance_simulator
!        Setup:          Setup1
!        Solution:       Sweep
!
# GHz S MA R 50.000000
! Terminal data exported
! Port[1] = 1
! Port[2] = 2
3                              0.49193335460648 -161.976954846294 0.870632858687067 -74.9297898238657 0.870632858687068 -74.9297898238656 0.491933354606481 -167.882624801438 
! Gamma         0                0                0                0                
! Port Impedance         50               0                50               0                
3.007                          0.492823528291935 -162.133292568282 0.870129283475671 104.907758014197 0.870129283475676 104.907758014197 0.492823528291934 -168.051191403323 
! Gamma         0                0                0                0                
! Port Impedance         50               0                50               0                
3.014                          0.493706808620921 -162.28915932546 0.869628418993624 -75.2542541152462 0.86962841899362 -75.2542541152462 0.493706808620921 -168.219348905033 
! Gamma         0                0                0                0                
! Port Impedance         50               0                50               0                
3.021                          0.494587216719005 -162.445400314797 0.869128002688985 -75.4159796143832 0.869128002688989 -75.4159796143832 0.494587216719005 -168.386558913969 
! Gamma         0                0                0                0                
! Port Impedance         50               0                50               0                
3.028                          0.495465623502537 -162.601172492986 0.868627547299324 -75.5776614371918 0.868627547299326 -75.5776614371918 0.495465623502538 -168.554150381398 
! Gamma         0                0                0                0                
! Port Impedance         50               0                50               0                
3.035                          0.496359111189762 -162.75775277783 0.868117292040027 104.259474092434 0.868117292040029 104.259474092434 0.496359111189762 -168.723299037302 
! Gamma         0                0                0                0                
! Port Impedance         50               0                50               0                
3.042                          0.497238411588321 -162.913693928743 0.867613947583326 -75.9023191505951 0.867613947583328 -75.9023191505952 0.497238411588321 -168.890944372447 
! Gamma         0                0                0                0                
! Port Impedance         50               0                50               0                
3.049                          0.498115512179677 -163.069141116618 0.867110682973045 103.935845987794 0.867110682973042 103.935845987794 0.498115512179677 -169.059166907793 
! Gamma         0                0                0                0                
! Port Impedance         50               0                50               0                
3.056                          0.498980123290746 -163.223858803281 0.866613429714052 -76.2250740909045 0.866613429714052 -76.2250740909045 0.498980123290746 -169.226289378528 
! Gamma         0                0                0                0                
! Port Impedance         50               0                50               0                
3.063                          0.499861769511675 -163.38036866737 0.866105196486349 -76.3871325198521 0.86610519648635 -76.3871325198522 0.499861769511674 -169.393896372334 
! Gamma         0                0                0                0                
! Port Impedance         50               0                50               0                
3.07                           0.500740412900209 -163.535866796399 0.865597503975452 103.4508358435   0.865597503975447 103.4508358435   0.500740412900209 -169.562461516602 
! Gamma         0                0                0                0                
! Port Impedance         50               0                50               0                
3.077                          0.50160899219886 -163.691689191637 0.8650944566608  103.289647467739 0.865094456660799 103.289647467739 0.501608992198859 -169.729015872884 
! Gamma         0                0                0                0                
! Port Impedance         50               0                50               0                
3.084                          0.502474350409743 -163.84646631256 0.864592116075729 -76.8715219185823 0.86459211607573 -76.8715219185823 0.502474350409742 -169.896577524605 
! Gamma         0                0                0                0                
! Port Impedance         50               0                50               0                
3.091                          0.503350076482494 -164.002282885321 0.864082577364609 102.966576350057 0.864082577364611 102.966576350057 0.503350076482493 -170.064564414566 
! Gamma         0                0                0                0                
! Port Impedance         50               0                50               0                
3.098                          0.504206692567712 -164.157477045296 0.863583007689432 102.806149331691 0.863583007689434 102.80614933169  0.504206692567713 -170.230224291324 
! Gamma         0                0                0                0                
! Port Impedance         50               0                50               0                
3.105                          0.505073809654362 -164.312537737371 0.863076153535264 -77.3552641708047 0.863076153535268 -77.3552641708047 0.505073809654362 -170.397990604238 
! Gamma         0                0                0                0                
! Port Impedance         50               0                50               0                
3.112                          0.505939761494204 -164.467906621007 0.862568813335601 -77.5165349178159 0.862568813335602 -77.5165349178159 0.505939761494204 -170.565163214624 
! Gamma         0                0                0                0                
! Port Impedance         50               0                50               0                
3.119                          0.506804542218663 -164.623024203283 0.862060993193944 -77.6778250456405 0.862060993193945 -77.6778250456405 0.506804542218663 -170.732625887998 
! Gamma         0                0                0                0                
! Port Impedance         50               0                50               0                
3.126                          0.507660899684494 -164.77777413641 0.861556969057492 -77.8385296384569 0.861556969057489 -77.8385296384569 0.507660899684494 -170.899285140504 
! Gamma         0                0                0                0                
! Port Impedance         50               0                50               0                
3.133                          0.508518799966955 -164.932662987109 0.86105088704453 102.00061431564  0.861050887044527 102.00061431564  0.508518799966954 -171.066108381611 
! Gamma         0                0                0                0                
! Port Impedance         50               0                50               0                
3.14                           0.509375667033055 -165.087574474652 0.860544263727689 101.839798263036 0.86054426372769 101.839798263036 0.509375667033054 -171.232828999277 
! Gamma         0                0                0                0                
! Port Impedance         50               0                50               0                
3.147                          0.510234438404114 -165.242224115062 0.860035358497799 -78.3212640725946 0.860035358497799 -78.3212640725946 0.510234438404114 -171.400304030127 
! Gamma         0                0                0                0                
! Port Impedance         50               0                50               0                
3.154                          0.511086075734805 -165.397142353543 0.859529535961386 -78.4817545511087 0.859529535961388 -78.4817545511087 0.511086075734805 -171.566366748674 
! Gamma         0                0                0                0                
! Port Impedance         50               0                50               0                
3.161                          0.511937469730009 -165.551708414309 0.859022716280797 -78.6423253764421 0.859022716280795 -78.6423253764421 0.511937469730008 -171.732942338576 
! Gamma         0                0                0                0                
! Port Impedance         50               0                50               0                
3.168                          0.512781912314873 -165.705924096809 0.858518905093359 101.197566837691 0.858518905093361 101.197566837691 0.512781912314873 -171.898942227808 
! Gamma         0                0                0                0                
! Port Impedance         50               0                50               0                
3.175                          0.513635337320531 -165.860488041671 0.858008589849558 101.03673874367  0.858008589849555 101.03673874367  0.513635337320531 -172.066034470989 
! Gamma         0                0                0                0                
! Port Impedance         50               0                50               0                
3.182                          0.514479663071716 -166.014867545554 0.857502580920669 100.876541778915 0.857502580920675 100.876541778915 0.514479663071716 -172.232048896617 
! Gamma         0                0                0                0                
! Port Impedance         50               0                50               0                
3.189                          0.515323309743639 -166.168831435174 0.856995849718573 -79.283675397471 0.856995849718576 -79.283675397471 0.515323309743639 -172.398519359768 
! Gamma         0                0                0                0                
! Port Impedance         50               0                50               0                
3.196                          0.516155262427578 -166.322715959095 0.856495035051762 100.557016097563 0.856495035051761 100.557016097563 0.516155262427577 -172.563251845778 
! Gamma         0                0                0                0                
! Port Impedance         50               0                50               0                
3.203                          0.517005876636684 -166.477458854495 0.855981847659829 100.396221376358 0.855981847659828 100.396221376358 0.517005876636684 -172.73009839279 
! Gamma         0                0                0                0                
! Port Impedance         50               0                50               0                
3.21                           0.517844051799728 -166.631481098078 0.855475036465495 -79.7637082839119 0.855475036465494 -79.7637082839119 0.517844051799729 -172.895935469746 
! Gamma         0                0                0                0                
! Port Impedance         50               0                50               0                
3.217                          0.518680954458889 -166.785108739489 0.854967875116729 100.076350091131 0.854967875116732 100.076350091131 0.518680954458888 -173.062191078249 
! Gamma         0                0                0                0                
! Port Impedance         50               0                50               0                
3.224                          0.519515468246479 -166.938865056544 0.854461045485772 -80.0834474324472 0.854461045485776 -80.0834474324473 0.519515468246479 -173.22802980835 
! Gamma         0                0                0                0                
! Port Impedance         50               0                50               0                
3.231                          0.520354062872625 -167.092753015936 0.853950612888095 -80.2435753694223 0.853950612888095 -80.2435753694223 0.520354062872625 -173.394397722909 
! Gamma         0                0                0                0                
! Port Impedance         50               0                50               0                
3.238                          0.521180268043644 -167.246623892704 0.853446617078044 -80.4027332519496 0.85344661707804 -80.4027332519497 0.521180268043644 -173.558842611195 
! Gamma         0                0                0                0                
! Port Impedance         50               0                50               0                
3.245                          0.522015917706165 -167.40031999907 0.852935742985011 99.437208036278  0.852935742985007 99.4372080362781 0.522015917706165 -173.725263928374 
! Gamma         0                0                0                0                
! Port Impedance         50               0                50               0                
3.252                          0.522843433322396 -167.554082141255 0.852428732640827 -80.7221980432674 0.852428732640831 -80.7221980432674 0.522843433322396 -173.89031394528 
! Gamma         0                0                0                0                
! Port Impedance         50               0                50               0                
3.259                          0.523667422034985 -167.707483185674 0.851922784704831 -80.8814555058499 0.851922784704831 -80.8814555058499 0.523667422034985 -174.055427826026 
! Gamma         0                0                0                0                
! Port Impedance         50               0                50               0                
3.266                          0.524501278480425 -167.861368390771 0.851409659842078 -81.041462759625 0.851409659842075 -81.041462759625 0.524501278480424 -174.221557128479 
! Gamma         0                0                0                0                
! Port Impedance         50               0                50               0                
3.273                          0.525327512697707 -168.014726254823 0.85090011423365 -81.2010244478697 0.850900114233653 -81.2010244478697 0.525327512697707 -174.387322640917 
! Gamma         0                0                0                0                
! Port Impedance         50               0                50               0                
3.28                           0.526145082914799 -168.167883041215 0.850394821082873 -81.3599426767379 0.850394821082881 -81.3599426767379 0.526145082914799 -174.552002312261 
! Gamma         0                0                0                0                
! Port Impedance         50               0                50               0                
3.287                          0.526967444908366 -168.321044558405 0.849885469935068 -81.5193366959264 0.849885469935064 -81.5193366959264 0.526967444908366 -174.717628833447 
! Gamma         0                0                0                0                
! Port Impedance         50               0                50               0                
3.294                          0.5277794384143  -168.474075346584 0.849381459879534 98.3221029046245 0.849381459879532 98.3221029046245 0.5277794384143  -174.881718844167 
! Gamma         0                0                0                0                
! Port Impedance         50               0                50               0                
3.301                          0.528604671365857 -168.627694071924 0.848868129576198 98.1624256601518 0.8488681295762  98.1624256601518 0.528604671365857 -175.047454607772 
! Gamma         0                0                0                0                
! Port Impedance         50               0                50               0                
3.308                          0.529422472704733 -168.780933832171 0.848358323702436 -81.9967333635426 0.848358323702434 -81.9967333635426 0.529422472704733 -175.212532894914 
! Gamma         0                0                0                0                
! Port Impedance         50               0                50               0                
3.315                          0.530228106393558 -168.932845793654 0.847855031942548 97.8448024099509 0.847855031942551 97.8448024099509 0.530228106393558 -175.377549386444 
! Gamma         0                0                0                0                
! Port Impedance         50               0                50               0                
3.322                          0.531037359838342 -169.085500863174 0.847348406770156 -82.3138828954565 0.847348406770158 -82.3138828954565 0.531037359838342 -175.542264927739 
! Gamma         0                0                0                0                
! Port Impedance         50               0                50               0                
3.329                          0.531855177778815 -169.239154715685 0.846835326300141 -82.4731470521185 0.846835326300139 -82.4731470521186 0.531855177778815 -175.707139388553 
! Gamma         0                0                0                0                
! Port Impedance         50               0                50               0                
3.336                          0.532660002025122 -169.39180592183 0.846329322570473 97.3684420599335 0.846329322570475 97.3684420599335 0.532660002025122 -175.871309958303 
! Gamma         0                0                0                0                
! Port Impedance         50               0                50               0                
3.343                          0.533462211165544 -169.543886228816 0.84582389967319 97.2100568619619 0.845823899673196 97.2100568619619 0.533462211165545 -176.03600004726 
! Gamma         0                0                0                0                
! Port Impedance         50               0                50               0                
3.35                           0.534277686683957 -169.697617824604 0.845309028410108 -82.9491911670435 0.845309028410106 -82.9491911670435 0.534277686683957 -176.200764509483 
! Gamma         0                0                0                0                
! Port Impedance         50               0                50               0                
3.357                          0.535073822279882 -169.849608592797 0.844805305801755 -83.1071863541773 0.844805305801755 -83.1071863541773 0.535073822279882 -176.364764115558 
! Gamma         0                0                0                0                
! Port Impedance         50               0                50               0                
3.364                          0.53587827841141 -170.002304217501 0.844295250920452 96.7341453285285 0.844295250920445 96.7341453285285 0.535878278411411 -176.529405125442 
! Gamma         0                0                0                0                
! Port Impedance         50               0                50               0                
3.371                          0.53667739045801 -170.154635484359 0.843787519800558 96.5757967607042 0.843787519800562 96.5757967607042 0.53667739045801 -176.693770994233 
! Gamma         0                0                0                0                
! Port Impedance         50               0                50               0                
3.378                          0.537472726938705 -170.306782232081 0.843281132124436 96.4176765152367 0.843281132124438 96.4176765152367 0.537472726938704 -176.857864737445 
! Gamma         0                0                0                0                
! Port Impedance         50               0                50               0                
3.385                          0.538264920051401 -170.458863252393 0.842775697230323 -83.7402477739184 0.842775697230325 -83.7402477739184 0.538264920051401 -177.021632295444 
! Gamma         0                0                0                0                
! Port Impedance         50               0                50               0                
3.392                          0.539062453450578 -170.611044161087 0.842265796099929 96.101288895386  0.842265796099924 96.101288895386  0.539062453450578 -177.186378048141 
! Gamma         0                0                0                0                
! Port Impedance         50               0                50               0                
3.399                          0.539850770353204 -170.762771757597 0.841760741392147 95.9434695471057 0.841760741392143 95.9434695471057 0.539850770353204 -177.350289148192 
! Gamma         0                0                0                0                
! Port Impedance         50               0                50               0                
3.406                          0.54064600154284 -170.915359167167 0.84125020119804 95.7851467045868 0.841250201198037 95.7851467045868 0.54064600154284 -177.514347423659 
! Gamma         0                0                0                0                
! Port Impedance         50               0                50               0                
3.413                          0.541428072119471 -171.066800317178 0.840747074167369 95.6276711605069 0.84074707416737 95.6276711605069 0.541428072119471 -177.677857361808 
! Gamma         0                0                0                0                
! Port Impedance         50               0                50               0                
3.42                           0.542218197279906 -171.218874225577 0.840237720254528 95.4695433770103 0.840237720254531 95.4695433770103 0.542218197279906 -177.842039020403 
! Gamma         0                0                0                0                
! Port Impedance         50               0                50               0                
3.427                          0.542992089420602 -171.370184290924 0.839737810763963 95.3126148962167 0.839737810763958 95.3126148962167 0.542992089420603 -178.004585916643 
! Gamma         0                0                0                0                
! Port Impedance         50               0                50               0                
3.434                          0.543788368650207 -171.522799471895 0.839222384187139 95.1538555269663 0.839222384187139 95.1538555269663 0.543788368650207 -178.169489474173 
! Gamma         0                0                0                0                
! Port Impedance         50               0                50               0                
3.441                          0.544561445106883 -171.674298049428 0.83872095031846 -85.0031117265572 0.838720950318463 -85.0031117265572 0.544561445106883 -178.331925403686 
! Gamma         0                0                0                0                
! Port Impedance         50               0                50               0                
3.448                          0.545340369591314 -171.825688920541 0.838214698805747 -85.1607646247936 0.838214698805748 -85.1607646247936 0.545340369591313 -178.495840329047 
! Gamma         0                0                0                0                
! Port Impedance         50               0                50               0                
3.455                          0.546123656675048 -171.977569610156 0.837704572996874 -85.3187598132951 0.837704572996872 -85.3187598132951 0.546123656675049 -178.659950016435 
! Gamma         0                0                0                0                
! Port Impedance         50               0                50               0                
3.462                          0.54689987492022 -172.129319581439 0.837198021266325 94.5237648380992 0.837198021266322 94.5237648380992 0.546899874920221 -178.823150742362 
! Gamma         0                0                0                0                
! Port Impedance         50               0                50               0                
3.469                          0.547673637471445 -172.280571003546 0.836692050170668 -85.6337213986822 0.836692050170668 -85.6337213986822 0.547673637471446 -178.986871793819 
! Gamma         0                0                0                0                
! Port Impedance         50               0                50               0                
3.476                          0.548439107601629 -172.431094191692 0.836190495792154 -85.7907037465143 0.836190495792155 -85.7907037465143 0.548439107601628 -179.150313301337 
! Gamma         0                0                0                0                
! Port Impedance         50               0                50               0                
3.483                          0.549215865061776 -172.58321141051 0.835680521230716 -85.9484291697985 0.83568052123072 -85.9484291697985 0.549215865061777 -179.313646929087 
! Gamma         0                0                0                0                
! Port Impedance         50               0                50               0                
3.49                           0.549978688570222 -172.734079165376 0.835178688735876 93.8947182116765 0.835178688735877 93.8947182116765 0.549978688570223 -179.476484411271 
! Gamma         0                0                0                0                
! Port Impedance         50               0                50               0                
3.497                          0.550742128402514 -172.884952849386 0.834675450700851 93.7377061240574 0.83467545070085 93.7377061240574 0.550742128402514 -179.6396349025  
! Gamma         0                0                0                0                
! Port Impedance         50               0                50               0                
3.504                          0.551505125166624 -173.035757077544 0.834171503298301 93.5806059497817 0.834171503298299 93.5806059497816 0.551505125166623 -179.803031022893 
! Gamma         0                0                0                0                
! Port Impedance         50               0                50               0                
3.511                          0.55227315952755 -173.187448481217 0.833663215732502 93.4231712595048 0.833663215732501 93.4231712595048 0.55227315952755 -179.966208999774 
! Gamma         0                0                0                0                
! Port Impedance         50               0                50               0                
3.518                          0.553023945484896 -173.3376841467  0.833165359169666 -86.7331220385512 0.833165359169667 -86.7331220385512 0.553023945484896 179.871440069597 
! Gamma         0                0                0                0                
! Port Impedance         50               0                50               0                
3.525                          0.553777399467346 -173.488233564525 0.832664753570838 93.1102681536271 0.832664753570838 93.1102681536271 0.553777399467346 179.708769871779 
! Gamma         0                0                0                0                
! Port Impedance         50               0                50               0                
3.532                          0.554544074040022 -173.639976959566 0.832154354640471 -87.0473439381823 0.832154354640467 -87.0473439381823 0.554544074040021 179.545289083202 
! Gamma         0                0                0                0                
! Port Impedance         50               0                50               0                
3.539                          0.555294889243668 -173.790471304955 0.831653525201369 92.7960712220738 0.831653525201366 92.7960712220738 0.555294889243668 179.382613749102 
! Gamma         0                0                0                0                
! Port Impedance         50               0                50               0                
3.546                          0.556041944302242 -173.940742463641 0.831154231281163 -87.3603641074853 0.831154231281166 -87.3603641074853 0.556041944302242 179.22001424867  
! Gamma         0                0                0                0                
! Port Impedance         50               0                50               0                
3.553                          0.556794264055274 -174.091564418192 0.830650436414228 92.4827760200064 0.830650436414226 92.4827760200064 0.556794264055274 179.057116458205 
! Gamma         0                0                0                0                
! Port Impedance         50               0                50               0                
3.56                           0.557542754149865 -174.242099979906 0.830148226098802 92.3260427381725 0.830148226098797 92.3260427381725 0.557542754149865 178.894185456251 
! Gamma         0                0                0                0                
! Port Impedance         50               0                50               0                
3.567                          0.558291224403665 -174.392652439506 0.829645049857981 92.1691790390193 0.829645049857987 92.1691790390193 0.558291224403666 178.731010517545 
! Gamma         0                0                0                0                
! Port Impedance         50               0                50               0                
3.574                          0.559030102840661 -174.543003708912 0.829147359712348 92.0130499611246 0.82914735971235 92.0130499611246 0.559030102840661 178.569103631161 
! Gamma         0                0                0                0                
! Port Impedance         50               0                50               0                
3.581                          0.559770348809743 -174.693306780881 0.828647788021796 -88.1433612153275 0.828647788021799 -88.1433612153275 0.559770348809743 178.406584350226 