! Touchstone file exported from HFSS 2024.1.0
!        File:           C:/Users/phobo/Documents/Ansoft/hfss_resonance_simulator.aedt
!        Generated:      07:35:36 AM May 30, 2025
!        Design:         Resonator_7252612e-6GHz_2_ports_v10
!        Project:        hfss_resonance_simulator
!        Setup:          Setup1
!        Solution:       Sweep
!
# GHz S MA R 50.000000
! Terminal data exported
! Port[1] = 1
! Port[2] = 2
5                              0.0380911434401907 164.090408233002 0.999274268957586 -106.647329937302 0.999274269148424 -106.647329937302 0.0380911434401907 162.614931892394 
! Gamma         0                0                0                0                
! Port Impedance         50               0                50               0                
5.0008                         0.0380900038653819 164.073114117318 0.999274333459603 -106.664368320098 0.999274333453452 -106.66436831533 0.0380899720335347 162.598196485526 
! Gamma         0                0                0                0                
! Port Impedance         50               0                50               0                
5.0016                         0.0380888612525379 164.055820484597 0.99927439800332 -106.681406732573 0.999274397800735 -106.681406723054 0.0380887977144399 162.581460366812 
! Gamma         0                0                0                0                
! Port Impedance         50               0                50               0                
5.0024                         0.0380877156015747 164.038527334499 0.999274462588864 -106.698445174715 0.999274462190403 -106.698445160462 0.0380876204825701 162.564723536931 
! Gamma         0                0                0                0                
! Port Impedance         50               0                50               0                
5.0032                         0.0380865669124085 164.021234666685 0.999274527216363 -106.71548364651 0.999274526622581 -106.715483627541 0.0380864403375898 162.547985996564 
! Gamma         0                0                0                0                
! Port Impedance         50               0                50               0                
5.004                          0.0380854151849558 164.003942480817 0.999274591885948 -106.732522147948 0.999274591097398 -106.73252212428 0.0380852572791637 162.53124774639  
! Gamma         0                0                0                0                
! Port Impedance         50               0                50               0                
5.0048                         0.0380842604191331 163.986650776557 0.999274656597743 -106.749560679014 0.999274655614981 -106.749560650665 0.0380840713069571 162.514508787088 
! Gamma         0                0                0                0                
! Port Impedance         50               0                50               0                
5.0056                         0.0380831026148574 163.969359553566 0.999274721351877 -106.766599239698 0.999274720175455 -106.766599206684 0.0380828824206356 162.497769119336 
! Gamma         0                0                0                0                
! Port Impedance         50               0                50               0                
5.0064                         0.0380819417720458 163.952068811506 0.999274786148478 -106.783637829987 0.999274784778949 -106.783637792326 0.0380816906198653 162.481028743812 
! Gamma         0                0                0                0                
! Port Impedance         50               0                50               0                
5.0072                         0.0380807778906155 163.934778550039 0.999274850987673 -106.800676449868 0.999274849425588 -106.800676407577 0.0380804959043127 162.464287661193 
! Gamma         0                0                0                0                
! Port Impedance         50               0                50               0                
5.008                          0.0380796109704841 163.917488768827 0.999274915869587 -106.817715099329 0.999274914115499 -106.817715052426 0.0380792982736446 162.447545872154 
! Gamma         0                0                0                0                
! Port Impedance         50               0                50               0                
5.0088                         0.0380784410115694 163.900199467534 0.99927498079435 -106.834753778358 0.999274978848808 -106.834753726859 0.0380780977275286 162.430803377374 
! Gamma         0                0                0                0                
! Port Impedance         50               0                50               0                
5.0096                         0.0380772680137892 163.882910645821 0.999275045762085 -106.851792486942 0.999275043625639 -106.851792430865 0.0380768942656323 162.414060177526 
! Gamma         0                0                0                0                
! Port Impedance         50               0                50               0                
5.0104                         0.0380760919770619 163.865622303353 0.999275110772921 -106.86883122507 0.99927510844612 -106.868831164432 0.0380756878876239 162.397316273286 
! Gamma         0                0                0                0                
! Port Impedance         50               0                50               0                
5.0112                         0.0380749129013057 163.848334439791 0.999275175826983 -106.885869992728 0.999275173310376 -106.885869927546 0.038074478593172 162.380571665328 
! Gamma         0                0                0                0                
! Port Impedance         50               0                50               0                
5.012                          0.0380737307864393 163.831047054801 0.999275240924398 -106.902908789905 0.999275238218531 -106.902908720196 0.0380732663819458 162.363826354327 
! Gamma         0                0                0                0                
! Port Impedance         50               0                50               0                
5.0128                         0.0380725456323816 163.813760148044 0.99927530606529 -106.919947616589 0.999275303170711 -106.91994754237 0.0380720512536146 162.347080340955 
! Gamma         0                0                0                0                
! Port Impedance         50               0                50               0                
5.0136                         0.0380713574390516 163.796473719186 0.999275371249786 -106.936986472766 0.999275368167042 -106.936986394054 0.0380708332078484 162.330333625885 
! Gamma         0                0                0                0                
! Port Impedance         50               0                50               0                
5.0144                         0.0380701662063685 163.77918776789  0.999275436478011 -106.954025358426 0.999275433207646 -106.954025275237 0.0380696122443175 162.31358620979  
! Gamma         0                0                0                0                
! Port Impedance         50               0                50               0                
5.0152                         0.038068971934252 163.76190229382  0.999275501750089 -106.971064273555 0.999275498292649 -106.971064185907 0.0380683883626926 162.296838093342 
! Gamma         0                0                0                0                
! Port Impedance         50               0                50               0                
5.016                          0.0380677746226216 163.744617296642 0.999275567066147 -106.988103218141 0.999275563422176 -106.98810312605 0.038067161562645 162.28008927721  
! Gamma         0                0                0                0                
! Port Impedance         50               0                50               0                
5.0168                         0.0380665742713973 163.727332776019 0.999275632426309 -107.005142192172 0.99927562859635 -107.005142095656 0.0380659318438463 162.263339762067 
! Gamma         0                0                0                0                
! Port Impedance         50               0                50               0                
5.0176                         0.0380653708804993 163.710048731616 0.999275697830699 -107.022181195636 0.999275693815294 -107.022181094711 0.0380646992059684 162.246589548582 
! Gamma         0                0                0                0                
! Port Impedance         50               0                50               0                
5.0184                         0.038064164449848 163.6927651631   0.999275763279442 -107.039220228521 0.999275759079134 -107.039220123203 0.0380634636486839 162.229838637425 
! Gamma         0                0                0                0                
! Port Impedance         50               0                50               0                
5.0192                         0.0380629549793639 163.675482070134 0.999275828772662 -107.056259290814 0.999275824387992 -107.056259181121 0.0380622251716656 162.213087029264 
! Gamma         0                0                0                0                
! Port Impedance         50               0                50               0                
5.02                           0.0380617424689678 163.658199452386 0.999275894310483 -107.073298382502 0.999275889741992 -107.073298268451 0.0380609837745868 162.196334724769 
! Gamma         0                0                0                0                
! Port Impedance         50               0                50               0                
5.0208                         0.0380605269185808 163.640917309519 0.999275959893029 -107.090337503575 0.999275955141257 -107.090337385181 0.0380597394571214 162.179581724607 
! Gamma         0                0                0                0                
! Port Impedance         50               0                50               0                
5.0216                         0.038059308328124 163.623635641201 0.999276025520423 -107.10737665402 0.999276020585909 -107.1073765313  0.0380584922189435 162.162828029446 
! Gamma         0                0                0                0                
! Port Impedance         50               0                50               0                
5.0224                         0.0380580866975191 163.606354447098 0.999276091192789 -107.124415833823 0.999276086076072 -107.124415706795 0.0380572420597276 162.146073639952 
! Gamma         0                0                0                0                
! Port Impedance         50               0                50               0                
5.0232                         0.0380568620266875 163.589073726875 0.99927615691025 -107.141455042974 0.999276151611867 -107.141454911653 0.0380559889791489 162.129318556792 
! Gamma         0                0                0                0                
! Port Impedance         50               0                50               0                
5.024                          0.0380556343155514 163.5717934802   0.999276222672929 -107.15849428146 0.999276217193418 -107.158494145863 0.0380547329768827 162.112562780631 
! Gamma         0                0                0                0                
! Port Impedance         50               0                50               0                
5.0248                         0.0380544035640326 163.55451370674  0.999276288480949 -107.175533549269 0.999276282820846 -107.175533409413 0.038053474052605 162.095806312135 
! Gamma         0                0                0                0                
! Port Impedance         50               0                50               0                
5.0256                         0.0380531697720537 163.537234406161 0.999276354334433 -107.192572846388 0.999276348494274 -107.192572702289 0.0380522122059922 162.079049151969 
! Gamma         0                0                0                0                
! Port Impedance         50               0                50               0                
5.0264                         0.0380519329395371 163.51995557813  0.999276420233502 -107.209612172806 0.999276414213823 -107.20961202448 0.0380509474367209 162.062291300797 
! Gamma         0                0                0                0                
! Port Impedance         50               0                50               0                
5.0272                         0.0380506930664057 163.502677222316 0.99927648617828 -107.22665152851 0.999276479979614 -107.226651375974 0.0380496797444683 162.045532759281 
! Gamma         0                0                0                0                
! Port Impedance         50               0                50               0                
5.028                          0.0380494501525823 163.485399338386 0.999276552168888 -107.243690913488 0.999276545791769 -107.243690756758 0.038048409128912 162.028773528087 
! Gamma         0                0                0                0                
! Port Impedance         50               0                50               0                
5.0288                         0.0380482041979903 163.468121926007 0.999276618205449 -107.260730327728 0.99927661165041 -107.26073016682 0.0380471355897302 162.012013607875 
! Gamma         0                0                0                0                
! Port Impedance         50               0                50               0                
5.0296                         0.038046955202553 163.450844984848 0.999276684288083 -107.277769771218 0.999276677555657 -107.277769606148 0.0380458591266013 161.995252999308 
! Gamma         0                0                0                0                
! Port Impedance         50               0                50               0                
5.0304                         0.0380457031661941 163.433568514576 0.999276750416913 -107.294809243945 0.99927674350763 -107.29480907473 0.038044579739204 161.978491703048 
! Gamma         0                0                0                0                
! Port Impedance         50               0                50               0                
5.0312                         0.0380444480888375 163.416292514862 0.999276816592059 -107.311848745898 0.999276809506451 -107.311848572554 0.038043297427218 161.961729719755 
! Gamma         0                0                0                0                
! Port Impedance         50               0                50               0                
5.032                          0.0380431899704072 163.399016985373 0.999276882813643 -107.328888277064 0.99927687555224 -107.328888099607 0.0380420121903228 161.94496705009  
! Gamma         0                0                0                0                
! Port Impedance         50               0                50               0                
5.0328                         0.0380419288108276 163.381741925777 0.999276949081786 -107.345927837431 0.999276941645118 -107.345927655878 0.0380407240281986 161.928203694712 
! Gamma         0                0                0                0                
! Port Impedance         50               0                50               0                
5.0336                         0.0380406646100232 163.364467335745 0.999277015396608 -107.362967426987 0.999277007785204 -107.362967241353 0.0380394329405262 161.911439654282 
! Gamma         0                0                0                0                
! Port Impedance         50               0                50               0                
5.0344                         0.0380393973679186 163.347193214946 0.999277081758229 -107.38000704572 0.999277073972617 -107.380006856022 0.0380381389269865 161.894674929458 
! Gamma         0                0                0                0                
! Port Impedance         50               0                50               0                
5.0352                         0.0380381270844389 163.329919563049 0.999277148166771 -107.397046693618 0.999277140207479 -107.397046499871 0.0380368419872612 161.877909520898 
! Gamma         0                0                0                0                
! Port Impedance         50               0                50               0                
5.036                          0.0380368537595093 163.312646379724 0.999277214622354 -107.414086370668 0.999277206489907 -107.414086172889 0.038035542121032 161.861143429259 
! Gamma         0                0                0                0                
! Port Impedance         50               0                50               0                
5.0368                         0.038035577393055 163.29537366464  0.999277281125096 -107.431126076859 0.999277272820022 -107.431125875063 0.0380342393279813 161.8443766552   
! Gamma         0                0                0                0                
! Port Impedance         50               0                50               0                
5.0376                         0.0380342979850018 163.278101417469 0.999277347675118 -107.448165812178 0.999277339197942 -107.448165606381 0.0380329336077921 161.827609199376 
! Gamma         0                0                0                0                
! Port Impedance         50               0                50               0                
5.0384                         0.0380330155352755 163.26082963788  0.99927741427254 -107.465205576614 0.999277405623786 -107.465205366832 0.0380316249601474 161.810841062444 
! Gamma         0                0                0                0                
! Port Impedance         50               0                50               0                
5.0392                         0.0380317300438021 163.243558325544 0.999277480917481 -107.482245370153 0.999277472097673 -107.482245156403 0.0380303133847309 161.79407224506  
! Gamma         0                0                0                0                
! Port Impedance         50               0                50               0                
5.04                           0.0380304415105079 163.226287480132 0.999277547610059 -107.499285192785 0.999277538619722 -107.499284975082 0.0380289988812268 161.777302747878 
! Gamma         0                0                0                0                
! Port Impedance         50               0                50               0                
5.0408                         0.0380291499353194 163.209017101315 0.999277614350395 -107.516325044497 0.99927760519005 -107.516324822857 0.0380276814493195 161.760532571553 
! Gamma         0                0                0                0                
! Port Impedance         50               0                50               0                
5.0416                         0.0380278553181632 163.191747188764 0.999277681138607 -107.533364925277 0.999277671808777 -107.533364699715 0.0380263610886941 161.743761716739 
! Gamma         0                0                0                0                
! Port Impedance         50               0                50               0                
5.0424                         0.0380265576589664 163.17447774215  0.999277747974813 -107.550404835112 0.999277738476019 -107.550404605645 0.0380250377990358 161.72699018409  
! Gamma         0                0                0                0                
! Port Impedance         50               0                50               0                
5.0432                         0.0380252569576559 163.157208761145 0.999277814859131 -107.567444773992 0.999277805191893 -107.567444540635 0.0380237115800306 161.710217974258 
! Gamma         0                0                0                0                
! Port Impedance         50               0                50               0                
5.044                          0.0380239532141593 163.139940245422 0.999277881791681 -107.584484741903 0.99927787195652 -107.584484504671 0.0380223824313648 161.693445087895 
! Gamma         0                0                0                0                
! Port Impedance         50               0                50               0                
5.0448                         0.0380226464284041 163.122672194651 0.999277948772579 -107.601524738834 0.999277938770014 -107.601524497744 0.0380210503527249 161.676671525654 
! Gamma         0                0                0                0                
! Port Impedance         50               0                50               0                
5.0456                         0.038021336600318 163.105404608505 0.999278015801945 -107.618564764772 0.999278005632494 -107.618564519839 0.0380197153437982 161.659897288186 
! Gamma         0                0                0                0                
! Port Impedance         50               0                50               0                
5.0464                         0.0380200237298291 163.088137486657 0.999278082879895 -107.635604819707 0.999278072544076 -107.635604570946 0.0380183774042722 161.643122376142 
! Gamma         0                0                0                0                
! Port Impedance         50               0                50               0                
5.0472                         0.0380187078168656 163.07087082878  0.999278150006547 -107.652644903624 0.999278139504877 -107.652644651052 0.0380170365338349 161.626346790171 
! Gamma         0                0                0                0                
! Port Impedance         50               0                50               0                
5.048                          0.0380173888613559 163.053604634546 0.999278217182018 -107.669685016514 0.999278206515014 -107.669684760145 0.0380156927321748 161.609570530924 
! Gamma         0                0                0                0                
! Port Impedance         50               0                50               0                
5.0488                         0.0380160668632288 163.036338903628 0.999278284406425 -107.686725158362 0.999278273574603 -107.686724898212 0.0380143459989807 161.59279359905  
! Gamma         0                0                0                0                
! Port Impedance         50               0                50               0                
5.0496                         0.0380147418224131 163.0190736357   0.999278351679886 -107.703765329159 0.99927834068376 -107.703765065243 0.038012996333942 161.576015995197 
! Gamma         0                0                0                0                
! Port Impedance         50               0                50               0                
5.0504                         0.0380134137388379 163.001808830435 0.999278419002516 -107.72080552889 0.999278407842602 -107.720805261225 0.0380116437367484 161.559237720014 
! Gamma         0                0                0                0                
! Port Impedance         50               0                50               0                
5.0512                         0.0380120826124326 162.984544487506 0.999278486374432 -107.737845757545 0.999278475051243 -107.737845486145 0.03801028820709 161.542458774148 
! Gamma         0                0                0                0                
! Port Impedance         50               0                50               0                
5.052                          0.0380107484431266 162.967280606589 0.999278553795751 -107.754886015112 0.999278542309801 -107.754885739992 0.0380089297446576 161.525679158246 
! Gamma         0                0                0                0                
! Port Impedance         50               0                50               0                
5.0528                         0.0380094112308498 162.950017187356 0.999278621266589 -107.771926301578 0.999278609618389 -107.771926022754 0.0380075683491421 161.508898872954 
! Gamma         0                0                0                0                
! Port Impedance         50               0                50               0                
5.0536                         0.0380080709755321 162.932754229483 0.999278688787061 -107.788966616932 0.999278676977123 -107.788966334419 0.0380062040202351 161.492117918919 
! Gamma         0                0                0                0                
! Port Impedance         50               0                50               0                
5.0544                         0.0380067276771037 162.915491732643 0.999278756357283 -107.806006961161 0.999278744386119 -107.806006674974 0.0380048367576284 161.475336296787 
! Gamma         0                0                0                0                
! Port Impedance         50               0                50               0                
5.0552                         0.038005381335495 162.898229696512 0.999278823977372 -107.823047334253 0.999278811845491 -107.823047044409 0.0380034665610145 161.458554007201 
! Gamma         0                0                0                0                
! Port Impedance         50               0                50               0                
5.056                          0.0380040319506367 162.880968120764 0.999278891647442 -107.840087736197 0.999278879355355 -107.84008744271 0.0380020934300862 161.441771050806 
! Gamma         0                0                0                0                
! Port Impedance         50               0                50               0                
5.0568                         0.0380026795224596 162.863707005074 0.999278959367608 -107.857128166981 0.999278946915823 -107.857127869865 0.0380007173645367 161.424987428247 
! Gamma         0                0                0                0                
! Port Impedance         50               0                50               0                
5.0576                         0.0380013240508947 162.846446349119 0.999279027137985 -107.874168626592 0.999279014527012 -107.874168325864 0.0379993383640597 161.408203140167 
! Gamma         0                0                0                0                
! Port Impedance         50               0                50               0                
5.0584                         0.0379999655358734 162.829186152573 0.999279094958688 -107.891209115019 0.999279082189034 -107.891208810693 0.0379979564283494 161.391418187207 
! Gamma         0                0                0                0                
! Port Impedance         50               0                50               0                
5.0592                         0.0379986039773272 162.811926415112 0.999279162829833 -107.908249632249 0.999279149902004 -107.90824932434 0.0379965715571002 161.374632570012 
! Gamma         0                0                0                0                
! Port Impedance         50               0                50               0                
5.06                           0.0379972393751877 162.794667136413 0.999279230751532 -107.925290178272 0.999279217666035 -107.925289866795 0.0379951837500071 161.357846289221 
! Gamma         0                0                0                0                
! Port Impedance         50               0                50               0                
5.0608                         0.037995871729387 162.777408316151 0.999279298723901 -107.942330753074 0.999279285481241 -107.942330438044 0.0379937930067657 161.341059345477 
! Gamma         0                0                0                0                
! Port Impedance         50               0                50               0                
5.0616                         0.0379945010398571 162.760149954003 0.999279366747053 -107.959371356644 0.999279353347736 -107.959371038077 0.0379923993270718 161.324271739421 
! Gamma         0                0                0                0                
! Port Impedance         50               0                50               0                
5.0624                         0.0379931273065305 162.742892049645 0.999279434821102 -107.97641198897 0.999279421265632 -107.97641166688 0.0379910027106217 161.307483471691 
! Gamma         0                0                0                0                
! Port Impedance         50               0                50               0                
5.0632                         0.0379917505293397 162.725634602754 0.999279502946162 -107.993452650039 0.999279489235042 -107.993452324442 0.0379896031571121 161.290694542929 
! Gamma         0                0                0                0                
! Port Impedance         50               0                50               0                
5.064                          0.0379903707082176 162.708377613008 0.999279571122347 -108.010493339842 0.99927955725608 -108.010493010751 0.0379882006662403 161.273904953772 
! Gamma         0                0                0                0                
! Port Impedance         50               0                50               0                
5.0648                         0.0379889878430972 162.691121080083 0.999279639349768 -108.027534058364 0.999279625328858 -108.027533725795 0.0379867952377038 161.25711470486  
! Gamma         0                0                0                0                
! Port Impedance         50               0                50               0                
5.0656                         0.0379876019339117 162.673865003657 0.999279707628542 -108.044574805594 0.999279693453488 -108.044574469562 0.0379853868712009 161.240323796831 
! Gamma         0                0                0                0                
! Port Impedance         50               0                50               0                