! Touchstone file exported from HFSS 2024.1.0
!        File:           C:/Users/phobo/Documents/Ansoft/hfss_resonance_simulator.aedt
!        Generated:      08:55:41 AM May 25, 2025
!        Design:         hfssRL994M
!        Project:        hfss_resonance_simulator
!        Setup:          Setup1
!        Solution:       Sweep
!
# GHz S MA R 50.000000
! Terminal data exported
! Port[1] = 1
! Port[2] = 2
5                              0.716067315491029 151.021093932662 0.698031231167685 63.895383742682  0.698031231167681 63.895383742682  0.716067315491029 156.769673552702 
! Gamma         0                0                0                0                
! Port Impedance         50               0                50               0                
5.008                          0.716588882546329 150.868486667218 0.697495787378679 -116.254344417339 0.69749578737868 -116.254344417339 0.716588882546329 156.622824498105 
! Gamma         0                0                0                0                
! Port Impedance         50               0                50               0                
5.016                          0.717108473385389 150.716094331926 0.696961575267156 63.5961042266057 0.696961575267156 63.5961042266057 0.71710847338539 156.476114121286 
! Gamma         0                0                0                0                
! Port Impedance         50               0                50               0                
5.024                          0.717629892895515 150.563473444085 0.696424681371054 -116.553679861064 0.696424681371052 -116.553679861064 0.717629892895514 156.329166833787 
! Gamma         0                0                0                0                
! Port Impedance         50               0                50               0                
5.032                          0.718141913612466 150.411572642903 0.695896681924137 63.2973720172935 0.695896681924139 63.2973720172935 0.718141913612466 156.183171391684 
! Gamma         0                0                0                0                
! Port Impedance         50               0                50               0                
5.04                           0.718659250087954 150.259277277361 0.695362410734879 63.1478969999105 0.695362410734876 63.1478969999104 0.718659250087953 156.03651672246  
! Gamma         0                0                0                0                
! Port Impedance         50               0                50               0                
5.048                          0.719172804135143 150.107370662751 0.694831258502662 62.9987468601075 0.694831258502666 62.9987468601075 0.719172804135143 155.890123057464 
! Gamma         0                0                0                0                
! Port Impedance         50               0                50               0                
5.056                          0.719683766200751 149.955537453179 0.69430200681483 -117.150225616403 0.694302006814832 -117.150225616403 0.719683766200751 155.744011314014 
! Gamma         0                0                0                0                
! Port Impedance         50               0                50               0                
5.064                          0.720194895332319 149.803522905024 0.693771801630242 -117.299322302469 0.693771801630242 -117.299322302469 0.720194895332318 155.597832490039 
! Gamma         0                0                0                0                
! Port Impedance         50               0                50               0                
5.072                          0.720700496195586 149.652183353599 0.693246561321033 -117.447826637862 0.693246561321031 -117.447826637862 0.720700496195586 155.452163370676 
! Gamma         0                0                0                0                
! Port Impedance         50               0                50               0                
5.08                           0.721211312015141 149.500472647178 0.692715124290932 62.4031153615806 0.692715124290929 62.4031153615806 0.721211312015141 155.305758075983 
! Gamma         0                0                0                0                
! Port Impedance         50               0                50               0                
5.088                          0.721712611158378 149.349147909392 0.692192824937501 -117.74521446106 0.692192824937499 -117.74521446106 0.721712611158377 155.160423168488 
! Gamma         0                0                0                0                
! Port Impedance         50               0                50               0                
5.096                          0.722215936303582 149.197673266606 0.691667652380202 62.1062117539233 0.691667652380203 62.1062117539233 0.722215936303581 155.01475024124  
! Gamma         0                0                0                0                
! Port Impedance         50               0                50               0                
5.104                          0.722718739007102 149.046492836097 0.691142260528169 -118.042237286614 0.691142260528165 -118.042237286614 0.722718739007102 154.869032590676 
! Gamma         0                0                0                0                
! Port Impedance         50               0                50               0                
5.112                          0.723216681663308 148.895534171195 0.690621192379668 -118.190316825803 0.690621192379666 -118.190316825803 0.723216681663309 154.723832177198 
! Gamma         0                0                0                0                
! Port Impedance         50               0                50               0                
5.12                           0.723715830397809 148.744451514128 0.690098106671517 61.6614278277501 0.690098106671511 61.6614278277501 0.72371583039781 154.578404141373 
! Gamma         0                0                0                0                
! Port Impedance         50               0                50               0                
5.128                          0.724213377834235 148.593628539565 0.689575944596335 -118.48666190595 0.689575944596335 -118.48666190595 0.724213377834235 154.433047648534 
! Gamma         0                0                0                0                
! Port Impedance         50               0                50               0                
5.136                          0.724708755614993 148.442860820324 0.68905530948899 61.3653675182065 0.689055309488992 61.3653675182065 0.724708755614993 154.287874216089 
! Gamma         0                0                0                0                
! Port Impedance         50               0                50               0                
5.144                          0.725201492239353 148.292158339224 0.688536706104921 -118.782459687563 0.688536706104921 -118.782459687563 0.725201492239353 154.14292228565  
! Gamma         0                0                0                0                
! Port Impedance         50               0                50               0                
5.152                          0.725691913837704 148.14154520227  0.688019800725655 -118.930152373644 0.688019800725655 -118.930152373644 0.725691913837705 153.998150050441 
! Gamma         0                0                0                0                
! Port Impedance         50               0                50               0                
5.16                           0.726180587320696 147.991286333104 0.687504003332759 60.9223791708632 0.687504003332758 60.9223791708632 0.726180587320696 153.853472008622 
! Gamma         0                0                0                0                
! Port Impedance         50               0                50               0                
5.168                          0.726670113913556 147.840901266816 0.686986568678645 -119.225241456264 0.686986568678647 -119.225241456264 0.726670113913556 153.708615820655 
! Gamma         0                0                0                0                
! Port Impedance         50               0                50               0                
5.176                          0.727153564613012 147.690797035652 0.686474830908308 -119.372379175   0.686474830908308 -119.372379175   0.727153564613012 153.564444614348 
! Gamma         0                0                0                0                
! Port Impedance         50               0                50               0                
5.184                          0.727641408383416 147.540553286686 0.685957710654088 60.4800843707141 0.685957710654089 60.4800843707141 0.727641408383417 153.419615454742 
! Gamma         0                0                0                0                
! Port Impedance         50               0                50               0                
5.192                          0.728122814616477 147.390690547852 0.685446691461108 -119.666913399368 0.685446691461108 -119.666913399368 0.728122814616477 153.275482653411 
! Gamma         0                0                0                0                
! Port Impedance         50               0                50               0                
5.2                            0.728605177369957 147.240733422304 0.684933935142431 -119.814083715586 0.684933935142428 -119.814083715586 0.728605177369957 153.131099146524 
! Gamma         0                0                0                0                
! Port Impedance         50               0                50               0                
5.208                          0.72908471286086 147.090894047805 0.684423466482995 60.0389304565009 0.684423466482992 60.0389304565009 0.72908471286086 152.986966865197 
! Gamma         0                0                0                0                
! Port Impedance         50               0                50               0                
5.216                          0.729561173252905 146.941156758433 0.683915560929744 59.8921442558081 0.683915560929742 59.8921442558082 0.729561173252905 152.843131753184 
! Gamma         0                0                0                0                
! Port Impedance         50               0                50               0                
5.224                          0.73003848314694 146.791684929844 0.683406038255822 59.7453874581976 0.683406038255818 59.7453874581976 0.73003848314694 152.699089986551 
! Gamma         0                0                0                0                
! Port Impedance         50               0                50               0                
5.232                          0.730511672006186 146.642361077917 0.682900210179147 59.5989118402529 0.682900210179151 59.5989118402529 0.730511672006186 152.555462602589 
! Gamma         0                0                0                0                
! Port Impedance         50               0                50               0                
5.24                           0.730988331375567 146.492822938172 0.682389961380414 -120.547930716023 0.682389961380416 -120.547930716023 0.730988331375567 152.411315629781 
! Gamma         0                0                0                0                
! Port Impedance         50               0                50               0                
5.248                          0.731456297283995 146.343701667236 0.681888323087871 -120.69407920276 0.681888323087871 -120.69407920276 0.731456297283995 152.268139927244 
! Gamma         0                0                0                0                
! Port Impedance         50               0                50               0                
5.256                          0.731927237265178 146.194503182972 0.68138279942288 -120.840507773504 0.681382799422885 -120.840507773504 0.731927237265178 152.12448127002  
! Gamma         0                0                0                0                
! Port Impedance         50               0                50               0                
5.264                          0.732394387625969 146.045711895709 0.680880651049788 -120.986549441283 0.680880651049787 -120.986549441283 0.732394387625969 151.981189221724 
! Gamma         0                0                0                0                
! Port Impedance         50               0                50               0                
5.272                          0.732861909010549 145.89667355596  0.680377411677822 -121.132757231488 0.680377411677824 -121.132757231488 0.732861909010549 151.837811981064 
! Gamma         0                0                0                0                
! Port Impedance         50               0                50               0                
5.28                           0.733325191785109 145.747953482377 0.67987805016292 58.721385941819  0.679878050162921 58.721385941819  0.733325191785108 151.694818401261 
! Gamma         0                0                0                0                
! Port Impedance         50               0                50               0                
5.288                          0.733789608094755 145.599115472779 0.679376781360791 -121.42465883388 0.679376781360789 -121.42465883388 0.733789608094755 151.551566859461 
! Gamma         0                0                0                0                
! Port Impedance         50               0                50               0                
5.296                          0.734250555760401 145.450503350852 0.678878576304734 -121.570427918648 0.678878576304732 -121.570427918648 0.734250555760401 151.408640811852 
! Gamma         0                0                0                0                
! Port Impedance         50               0                50               0                
5.304                          0.734710956475648 145.301922723996 0.678380284526785 58.2838055151242 0.678380284526781 58.2838055151241 0.734710956475648 151.265688306252 
! Gamma         0                0                0                0                
! Port Impedance         50               0                50               0                
5.312                          0.735168500661842 145.153596830311 0.677884411706463 58.1382890991256 0.677884411706466 58.1382890991255 0.735168500661842 151.12298136794  
! Gamma         0                0                0                0                
! Port Impedance         50               0                50               0                
5.32                           0.735624706968207 145.005115316997 0.677389319740089 -122.007253458884 0.677389319740087 -122.007253458884 0.735624706968207 150.980377765235 
! Gamma         0                0                0                0                
! Port Impedance         50               0                50               0                
5.328                          0.736081032318189 144.857084780293 0.676893428732609 -122.152636470975 0.676893428732613 -122.152636470975 0.736081032318188 150.837642277758 
! Gamma         0                0                0                0                
! Port Impedance         50               0                50               0                
5.336                          0.736531755390908 144.709020829283 0.676402966655814 -122.29774537937 0.676402966655816 -122.29774537937 0.736531755390908 150.695488411977 
! Gamma         0                0                0                0                
! Port Impedance         50               0                50               0                
5.344                          0.736982922667735 144.560885343748 0.675911363786793 -122.44296895488 0.675911363786796 -122.442968954881 0.736982922667734 150.553176746491 
! Gamma         0                0                0                0                
! Port Impedance         50               0                50               0                
5.352                          0.737434871685085 144.412878453001 0.675418248215728 -122.588222151539 0.675418248215727 -122.588222151539 0.737434871685085 150.410677243921 
! Gamma         0                0                0                0                
! Port Impedance         50               0                50               0                
5.36                           0.737886015347455 144.265006042757 0.674925350208937 -122.733422137724 0.674925350208937 -122.733422137724 0.737886015347454 150.268149681796 
! Gamma         0                0                0                0                
! Port Impedance         50               0                50               0                
5.368                          0.738332099377185 144.117495289885 0.674437329208044 -122.87813986963 0.674437329208045 -122.87813986963 0.738332099377184 150.126224970854 
! Gamma         0                0                0                0                
! Port Impedance         50               0                50               0                
5.376                          0.738775025065307 143.969733797563 0.673952121696902 56.9771060880622 0.673952121696902 56.9771060880622 0.738775025065307 149.984478378562 
! Gamma         0                0                0                0                
! Port Impedance         50               0                50               0                
5.384                          0.739216250533853 143.822390053015 0.673468139518618 56.8326516907088 0.673468139518622 56.8326516907088 0.739216250533854 149.842913328402 
! Gamma         0                0                0                0                
! Port Impedance         50               0                50               0                
5.392                          0.739659949945969 143.674997150857 0.672980800948976 56.6879615339175 0.672980800948977 56.6879615339175 0.739659949945969 149.700925916978 
! Gamma         0                0                0                0                
! Port Impedance         50               0                50               0                
5.4                            0.740100281668774 143.527417172691 0.672496522722463 56.5433381931592 0.67249652272246 56.5433381931592 0.740100281668774 149.559259213628 
! Gamma         0                0                0                0                
! Port Impedance         50               0                50               0                
5.408                          0.740538415568746 143.380393156526 0.672014028921222 56.3990754920622 0.672014028921219 56.3990754920621 0.740538415568746 149.417757827598 
! Gamma         0                0                0                0                
! Port Impedance         50               0                50               0                
5.416                          0.740975560610005 143.233031095145 0.67153199371191 56.2546101080931 0.671531993711905 56.2546101080931 0.740975560610005 149.276189121041 
! Gamma         0                0                0                0                
! Port Impedance         50               0                50               0                
5.424                          0.741410525566136 143.086010532882 0.671051736142412 -123.889554462344 0.671051736142413 -123.889554462344 0.741410525566136 149.13488054243  
! Gamma         0                0                0                0                
! Port Impedance         50               0                50               0                
5.432                          0.741844150981356 142.938810920166 0.670572334394097 -124.033786293266 0.670572334394099 -124.033786293266 0.741844150981356 148.993616493302 
! Gamma         0                0                0                0                
! Port Impedance         50               0                50               0                
5.44                           0.742274939443244 142.792077884193 0.670095451614568 -124.177657702171 0.670095451614564 -124.177657702171 0.742274939443244 148.852606711464 
! Gamma         0                0                0                0                
! Port Impedance         50               0                50               0                
5.448                          0.742704993784057 142.645519080764 0.669618766320229 55.6785602295246 0.669618766320227 55.6785602295245 0.742704993784056 148.711601378285 
! Gamma         0                0                0                0                
! Port Impedance         50               0                50               0                
5.456                          0.743133959030083 142.4987032078   0.66914267457417 -124.465398333085 0.669142674574171 -124.465398333085 0.743133959030083 148.570500126031 
! Gamma         0                0                0                0                
! Port Impedance         50               0                50               0                
5.464                          0.743559904512193 142.35203650201  0.668669326649443 55.3909167850607 0.668669326649441 55.3909167850607 0.743559904512194 148.429797068112 
! Gamma         0                0                0                0                
! Port Impedance         50               0                50               0                
5.472                          0.743986534009384 142.205189831139 0.668194610284088 55.2469946031962 0.668194610284089 55.2469946031962 0.743986534009383 148.288799375253 
! Gamma         0                0                0                0                
! Port Impedance         50               0                50               0                
5.48                           0.744407827900903 142.059061162474 0.667725232232436 -124.896223673171 0.667725232232434 -124.896223673171 0.744407827900903 148.148491491184 
! Gamma         0                0                0                0                
! Port Impedance         50               0                50               0                
5.488                          0.744829960722344 141.912822405153 0.667254321537411 54.9603606015615 0.667254321537412 54.9603606015615 0.744829960722344 148.00789879797  
! Gamma         0                0                0                0                
! Port Impedance         50               0                50               0                
5.496                          0.745251675129576 141.766366735624 0.666783278671984 54.8167792856982 0.666783278671983 54.8167792856982 0.745251675129577 147.867191835772 
! Gamma         0                0                0                0                
! Port Impedance         50               0                50               0                
5.504                          0.745671046024025 141.620081260093 0.66631425853079 54.6733976520769 0.666314258530791 54.6733976520769 0.745671046024024 147.726714044061 
! Gamma         0                0                0                0                
! Port Impedance         50               0                50               0                
5.512                          0.746086199908022 141.474215783184 0.665849369081933 54.5304289281157 0.665849369081933 54.5304289281157 0.746086199908021 147.586642073047 
! Gamma         0                0                0                0                
! Port Impedance         50               0                50               0                
5.52                           0.746500393971013 141.327937015436 0.665384972629471 54.3872208200324 0.665384972629471 54.3872208200324 0.746500393971013 147.446504624629 
! Gamma         0                0                0                0                
! Port Impedance         50               0                50               0                
5.528                          0.746912901755668 141.182018206046 0.664921888037178 -125.755731915214 0.66492188803718 -125.755731915214 0.746912901755668 147.306517963526 
! Gamma         0                0                0                0                
! Port Impedance         50               0                50               0                
5.536                          0.747327477160277 141.036206457277 0.664455899124431 -125.898800396826 0.664455899124429 -125.898800396826 0.747327477160277 147.166192749071 
! Gamma         0                0                0                0                
! Port Impedance         50               0                50               0                
5.544                          0.747735306234759 140.890328971144 0.663996921536549 53.9584300370694 0.663996921536546 53.9584300370694 0.747735306234759 147.026531102995 
! Gamma         0                0                0                0                
! Port Impedance         50               0                50               0                
5.552                          0.748144515585994 140.744661477655 0.663535819529433 53.8156346223591 0.663535819529435 53.8156346223591 0.748144515585994 146.886607767063 
! Gamma         0                0                0                0                
! Port Impedance         50               0                50               0                
5.56                           0.748550610869791 140.599067024164 0.663077659830628 -126.326972447781 0.66307765983063 -126.326972447781 0.748550610869791 146.746988080274 
! Gamma         0                0                0                0                
! Port Impedance         50               0                50               0                
5.568                          0.748956473456905 140.453280103228 0.662619197478457 -126.469738326179 0.662619197478459 -126.469738326179 0.748956473456905 146.607243244414 
! Gamma         0                0                0                0                
! Port Impedance         50               0                50               0                
5.576                          0.749358392107715 140.307825973611 0.662164632231092 53.3877901507319 0.662164632231095 53.3877901507319 0.749358392107715 146.467754327853 
! Gamma         0                0                0                0                
! Port Impedance         50               0                50               0                
5.584                          0.749761386251569 140.162407547332 0.661708291988341 53.2452814757927 0.661708291988337 53.2452814757928 0.749761386251569 146.328155404253 
! Gamma         0                0                0                0                
! Port Impedance         50               0                50               0                
5.592                          0.750158640439399 140.016907458564 0.661257902919967 53.1029730729133 0.661257902919967 53.1029730729133 0.750158640439399 146.189038687262 
! Gamma         0                0                0                0                
! Port Impedance         50               0                50               0                
5.6                            0.750559160616368 139.871541205404 0.660803258477783 -127.039500400801 0.660803258477781 -127.039500400801 0.750559160616368 146.049457992994 
! Gamma         0                0                0                0                
! Port Impedance         50               0                50               0                
5.608                          0.750953929791634 139.726305702088 0.660354598174726 -127.181666194878 0.660354598174721 -127.181666194878 0.750953929791634 145.910361908156 
! Gamma         0                0                0                0                
! Port Impedance         50               0                50               0                
5.616                          0.751348439541177 139.581019127963 0.659905692049278 -127.323889199123 0.659905692049281 -127.323889199123 0.751348439541177 145.771202473792 
! Gamma         0                0                0                0                
! Port Impedance         50               0                50               0                
5.624                          0.751741382066536 139.435996099368 0.659458030877397 52.5340719962465 0.659458030877398 52.5340719962465 0.751741382066536 145.632147893125 
! Gamma         0                0                0                0                
! Port Impedance         50               0                50               0                
5.632                          0.752130113336738 139.290782826201 0.659014637631114 -127.607878030146 0.659014637631111 -127.607878030146 0.752130113336738 145.493461113506 
! Gamma         0                0                0                0                
! Port Impedance         50               0                50               0                
5.64                           0.752520278907919 139.14566336984  0.658569077494797 -127.749961035436 0.658569077494798 -127.749961035436 0.752520278907919 145.354414559289 
! Gamma         0                0                0                0                
! Port Impedance         50               0                50               0                
5.648                          0.752906608970429 139.000552142617 0.65812737229859 52.1080930578882 0.658127372298594 52.1080930578882 0.752906608970429 145.215633973159 
! Gamma         0                0                0                0                
! Port Impedance         50               0                50               0                
5.656                          0.753291883632441 138.855623835406 0.657686352339387 51.9662315499929 0.657686352339389 51.9662315499929 0.753291883632441 145.07683926458  
! Gamma         0                0                0                0                
! Port Impedance         50               0                50               0                