! Touchstone file exported from HFSS 2024.1.0
!        File:           C:/Users/phobo/Documents/Ansoft/hfss_resonance_simulator.aedt
!        Generated:      10:56:23 AM May 28, 2025
!        Design:         Resonator_7252612e-6GHz_2_ports_v10
!        Project:        hfss_resonance_simulator
!        Setup:          Setup1
!        Solution:       Sweep
!
# GHz S MA R 50.000000
! Terminal data exported
! Port[1] = 1
! Port[2] = 2
5                              0.890432016090736 171.330183880005 0.455116276044471 -107.211048698011 0.455116276044472 -107.211048698011 0.890432016090736 154.247718723972 
! Gamma         0                0                0                0                
! Port Impedance         50               0                50               0                
5.0004                         0.890437021606281 171.326199781406 0.455106484818329 -107.215837640922 0.45510648481833 -107.215837640922 0.8904370422707  154.242119981176 
! Gamma         0                0                0                0                
! Port Impedance         50               0                50               0                
5.0008                         0.890442024883614 171.322215794233 0.455096697735478 -107.220626512705 0.455096697735479 -107.220626512705 0.890442066208588 154.236521296977 
! Gamma         0                0                0                0                
! Port Impedance         50               0                50               0                
5.0012                         0.89044702592313 171.318231918395 0.455086914795225 -107.225415313429 0.455086914795226 -107.225415313429 0.890447087905029 154.230922671308 
! Gamma         0                0                0                0                
! Port Impedance         50               0                50               0                
5.0016                         0.890452024725223 171.314248153801 0.455077135996879 -107.230204043165 0.455077135996879 -107.230204043165 0.890452107360654 154.225324104101 
! Gamma         0                0                0                0                
! Port Impedance         50               0                50               0                
5.002                          0.890457021290289 171.310264500359 0.455067361339747 -107.234992701983 0.455067361339748 -107.234992701983 0.890457124576096 154.219725595289 
! Gamma         0                0                0                0                
! Port Impedance         50               0                50               0                
5.0024                         0.89046201561872 171.306280957978 0.455057590823138 -107.239781289953 0.455057590823139 -107.239781289953 0.89046213955199 154.214127144802 
! Gamma         0                0                0                0                
! Port Impedance         50               0                50               0                
5.0028                         0.890467007710912 171.302297526567 0.455047824446362 -107.244569807145 0.455047824446363 -107.244569807145 0.89046715228897 154.208528752575 
! Gamma         0                0                0                0                
! Port Impedance         50               0                50               0                
5.0032                         0.890471997567257 171.298314206035 0.455038062208729 -107.249358253629 0.45503806220873 -107.249358253629 0.890472162787676 154.202930418538 
! Gamma         0                0                0                0                
! Port Impedance         50               0                50               0                
5.0036                         0.89047698518815 171.294330996289 0.45502830410955 -107.254146629476 0.455028304109551 -107.254146629476 0.890477171048745 154.197332142626 
! Gamma         0                0                0                0                
! Port Impedance         50               0                50               0                
5.004                          0.890481970573982 171.290347897238 0.455018550148136 -107.258934934755 0.455018550148137 -107.258934934755 0.89048217707282 154.19173392477  
! Gamma         0                0                0                0                
! Port Impedance         50               0                50               0                
5.0044                         0.890486953725148 171.286364908791 0.455008800323798 -107.263723169536 0.4550088003238  -107.263723169537 0.890487180860542 154.186135764904 
! Gamma         0                0                0                0                
! Port Impedance         50               0                50               0                
5.0048                         0.890491934642039 171.282382030856 0.454999054635851 -107.26851133389 0.454999054635852 -107.268511333891 0.890492182412556 154.18053766296  
! Gamma         0                0                0                0                
! Port Impedance         50               0                50               0                
5.0052                         0.890496913325047 171.278399263342 0.454989313083606 -107.273299427887 0.454989313083607 -107.273299427887 0.890497181729509 154.174939618871 
! Gamma         0                0                0                0                
! Port Impedance         50               0                50               0                
5.0056                         0.890501889774565 171.274416606156 0.454979575666378 -107.278087451596 0.45497957566638 -107.278087451596 0.890502178812047 154.169341632572 
! Gamma         0                0                0                0                
! Port Impedance         50               0                50               0                
5.006                          0.890506863990985 171.270434059207 0.454969842383482 -107.282875405088 0.454969842383483 -107.282875405088 0.890507173660822 154.163743703994 
! Gamma         0                0                0                0                
! Port Impedance         50               0                50               0                
5.0064                         0.890511835974696 171.266451622403 0.454960113234232 -107.287663288432 0.454960113234233 -107.287663288432 0.890512166276485 154.158145833072 
! Gamma         0                0                0                0                
! Port Impedance         50               0                50               0                
5.0068                         0.890516805726091 171.262469295651 0.454950388217944 -107.292451101698 0.454950388217946 -107.292451101698 0.890517156659688 154.152548019739 
! Gamma         0                0                0                0                
! Port Impedance         50               0                50               0                
5.0072                         0.890521773245561 171.25848707886  0.454940667333936 -107.297238844957 0.454940667333937 -107.297238844957 0.890522144811089 154.146950263929 
! Gamma         0                0                0                0                
! Port Impedance         50               0                50               0                
5.0076                         0.890526738533495 171.254504971939 0.454930950581524 -107.302026518278 0.454930950581525 -107.302026518278 0.890527130731343 154.141352565576 
! Gamma         0                0                0                0                
! Port Impedance         50               0                50               0                
5.008                          0.890531701590284 171.250522974793 0.454921237960026 -107.306814121732 0.454921237960027 -107.306814121732 0.89053211442111 154.135754924614 
! Gamma         0                0                0                0                
! Port Impedance         50               0                50               0                
5.0084                         0.890536662416317 171.246541087332 0.45491152946876 -107.311601655387 0.454911529468762 -107.311601655387 0.890537095881051 154.130157340976 
! Gamma         0                0                0                0                
! Port Impedance         50               0                50               0                
5.0088                         0.890541621011985 171.242559309464 0.454901825107047 -107.316389119315 0.454901825107048 -107.316389119315 0.89054207511183 154.124559814598 
! Gamma         0                0                0                0                
! Port Impedance         50               0                50               0                
5.0092                         0.890546577377677 171.238577641095 0.454892124874205 -107.321176513584 0.454892124874207 -107.321176513584 0.89054705211411 154.118962345414 
! Gamma         0                0                0                0                
! Port Impedance         50               0                50               0                
5.0096                         0.890551531513781 171.234596082133 0.454882428769556 -107.325963838265 0.454882428769558 -107.325963838266 0.89055202688856 154.113364933358 
! Gamma         0                0                0                0                
! Port Impedance         50               0                50               0                
5.01                           0.890556483420686 171.230614632486 0.454872736792421 -107.330751093428 0.454872736792423 -107.330751093428 0.890556999435848 154.107767578365 
! Gamma         0                0                0                0                
! Port Impedance         50               0                50               0                
5.0104                         0.89056143309878 171.226633292062 0.454863048942122 -107.335538279142 0.454863048942124 -107.335538279143 0.890561969756645 154.102170280371 
! Gamma         0                0                0                0                
! Port Impedance         50               0                50               0                
5.0108                         0.890566380548452 171.222652060768 0.454853365217981 -107.340325395478 0.454853365217983 -107.340325395478 0.890566937851625 154.09657303931  
! Gamma         0                0                0                0                
! Port Impedance         50               0                50               0                
5.0112                         0.890571325770089 171.21867093851  0.454843685619323 -107.345112442505 0.454843685619325 -107.345112442505 0.890571903721463 154.090975855117 
! Gamma         0                0                0                0                
! Port Impedance         50               0                50               0                
5.0116                         0.890576268764079 171.214689925197 0.454834010145471 -107.349899420293 0.454834010145473 -107.349899420293 0.890576867366836 154.085378727729 
! Gamma         0                0                0                0                
! Port Impedance         50               0                50               0                
5.012                          0.890581209530809 171.210709020736 0.454824338795751 -107.354686328911 0.454824338795753 -107.354686328912 0.890581828788424 154.07978165708  
! Gamma         0                0                0                0                
! Port Impedance         50               0                50               0                
5.0124                         0.890586148070665 171.206728225034 0.454814671569487 -107.359473168431 0.454814671569489 -107.359473168431 0.890586787986908 154.074184643107 
! Gamma         0                0                0                0                
! Port Impedance         50               0                50               0                
5.0128                         0.890591084384035 171.202747537998 0.454805008466008 -107.36425993892 0.454805008466009 -107.364259938921 0.890591744962974 154.068587685746 
! Gamma         0                0                0                0                
! Port Impedance         50               0                50               0                
5.0132                         0.890596018471304 171.198766959534 0.454795349484638 -107.36904664045 0.45479534948464 -107.36904664045 0.890596699717305 154.062990784932 
! Gamma         0                0                0                0                
! Port Impedance         50               0                50               0                
5.0136                         0.890600950332858 171.194786489551 0.454785694624707 -107.37383327309 0.45478569462471 -107.37383327309 0.890601652250591 154.057393940602 
! Gamma         0                0                0                0                
! Port Impedance         50               0                50               0                
5.014                          0.890605879969083 171.190806127954 0.454776043885544 -107.378619836909 0.454776043885546 -107.37861983691 0.890606602563524 154.051797152693 
! Gamma         0                0                0                0                
! Port Impedance         50               0                50               0                
5.0144                         0.890610807380364 171.186825874651 0.454766397266477 -107.383406331978 0.454766397266479 -107.383406331979 0.890611550656794 154.046200421142 
! Gamma         0                0                0                0                
! Port Impedance         50               0                50               0                
5.0148                         0.890615732567086 171.182845729548 0.454756754766837 -107.388192758367 0.454756754766839 -107.388192758367 0.890616496531099 154.040603745886 
! Gamma         0                0                0                0                
! Port Impedance         50               0                50               0                
5.0152                         0.890620655529633 171.178865692553 0.454747116385955 -107.392979116144 0.454747116385957 -107.392979116144 0.890621440187135 154.035007126861 
! Gamma         0                0                0                0                
! Port Impedance         50               0                50               0                
5.0156                         0.89062557626839 171.174885763571 0.454737482123162 -107.39776540538 0.454737482123164 -107.39776540538 0.890626381625602 154.029410564005 
! Gamma         0                0                0                0                
! Port Impedance         50               0                50               0                
5.016                          0.890630494783741 171.17090594251  0.454727851977792 -107.402551626145 0.454727851977794 -107.402551626145 0.890631320847203 154.023814057256 
! Gamma         0                0                0                0                
! Port Impedance         50               0                50               0                
5.0164                         0.890635411076069 171.166926229276 0.454718225949177 -107.407337778508 0.454718225949179 -107.407337778508 0.890636257852642 154.018217606552 
! Gamma         0                0                0                0                
! Port Impedance         50               0                50               0                
5.0168                         0.890640325145758 171.162946623774 0.454708604036651 -107.412123862539 0.454708604036653 -107.412123862539 0.890641192642627 154.012621211831 
! Gamma         0                0                0                0                
! Port Impedance         50               0                50               0                
5.0172                         0.890645236993191 171.158967125913 0.45469898623955 -107.416909878307 0.454698986239552 -107.416909878308 0.890646125217868 154.00702487303  
! Gamma         0                0                0                0                
! Port Impedance         50               0                50               0                
5.0176                         0.89065014661875 171.154987735597 0.454689372557209 -107.421695825883 0.454689372557211 -107.421695825884 0.890651055579076 154.00142859009  
! Gamma         0                0                0                0                
! Port Impedance         50               0                50               0                
5.018                          0.890655054022818 171.151008452734 0.454679762988964 -107.426481705337 0.454679762988967 -107.426481705337 0.890655983726966 153.995832362948 
! Gamma         0                0                0                0                
! Port Impedance         50               0                50               0                
5.0184                         0.890659959205777 171.147029277229 0.454670157534154 -107.431267516737 0.454670157534157 -107.431267516737 0.890660909662256 153.990236191544 
! Gamma         0                0                0                0                
! Port Impedance         50               0                50               0                
5.0188                         0.890664862168008 171.143050208988 0.454660556192116 -107.436053260154 0.454660556192119 -107.436053260154 0.890665833385665 153.984640075817 
! Gamma         0                0                0                0                
! Port Impedance         50               0                50               0                
5.0192                         0.890669762909893 171.139071247918 0.45465095896219 -107.440838935657 0.454650958962192 -107.440838935658 0.890670754897916 153.979044015706 
! Gamma         0                0                0                0                
! Port Impedance         50               0                50               0                
5.0196                         0.890674661431813 171.135092393925 0.454641365843714 -107.445624543317 0.454641365843717 -107.445624543317 0.890675674199734 153.973448011152 
! Gamma         0                0                0                0                
! Port Impedance         50               0                50               0                
5.02                           0.890679557734148 171.131113646914 0.45463177683603 -107.450410083202 0.454631776836033 -107.450410083202 0.890680591291847 153.967852062094 
! Gamma         0                0                0                0                
! Port Impedance         50               0                50               0                
5.0204                         0.890684451817278 171.127135006791 0.45462219193848 -107.455195555383 0.454622191938482 -107.455195555383 0.890685506174985 153.962256168473 
! Gamma         0                0                0                0                
! Port Impedance         50               0                50               0                
5.0208                         0.890689343681585 171.123156473462 0.454612611150405 -107.459980959929 0.454612611150408 -107.459980959929 0.890690418849882 153.95666033023  
! Gamma         0                0                0                0                
! Port Impedance         50               0                50               0                
5.0212                         0.890694233327447 171.119178046833 0.45460303447115 -107.46476629691 0.454603034471152 -107.464766296911 0.890695329317272 153.951064547306 
! Gamma         0                0                0                0                
! Port Impedance         50               0                50               0                
5.0216                         0.890699120755243 171.115199726809 0.454593461900057 -107.469551566396 0.454593461900059 -107.469551566397 0.890700237577896 153.945468819641 
! Gamma         0                0                0                0                
! Port Impedance         50               0                50               0                
5.022                          0.890704005965353 171.111221513296 0.454583893436472 -107.474336768457 0.454583893436475 -107.474336768457 0.890705143632494 153.939873147178 
! Gamma         0                0                0                0                
! Port Impedance         50               0                50               0                
5.0224                         0.890708888958156 171.107243406199 0.454574329079741 -107.479121903161 0.454574329079744 -107.479121903162 0.89071004748181 153.934277529858 
! Gamma         0                0                0                0                
! Port Impedance         50               0                50               0                
5.0228                         0.890713769734029 171.103265405424 0.454564768829211 -107.48390697058 0.454564768829214 -107.48390697058 0.890714949126593 153.928681967623 
! Gamma         0                0                0                0                
! Port Impedance         50               0                50               0                
5.0232                         0.89071864829335 171.099287510876 0.454555212684229 -107.488691970782 0.454555212684232 -107.488691970783 0.890719848567591 153.923086460417 
! Gamma         0                0                0                0                
! Port Impedance         50               0                50               0                
5.0236                         0.890723524636498 171.095309722461 0.454545660644144 -107.493476903838 0.454545660644146 -107.493476903838 0.890724745805558 153.917491008181 
! Gamma         0                0                0                0                
! Port Impedance         50               0                50               0                
5.024                          0.890728398763848 171.091332040083 0.454536112708305 -107.498261769817 0.454536112708308 -107.498261769817 0.890729640841251 153.91189561086  
! Gamma         0                0                0                0                
! Port Impedance         50               0                50               0                
5.0244                         0.890733270675779 171.087354463648 0.454526568876062 -107.503046568789 0.454526568876065 -107.503046568789 0.890734533675427 153.906300268396 
! Gamma         0                0                0                0                
! Port Impedance         50               0                50               0                
5.0248                         0.890738140372666 171.083376993061 0.454517029146768 -107.507831300824 0.454517029146771 -107.507831300824 0.890739424308849 153.900704980734 
! Gamma         0                0                0                0                
! Port Impedance         50               0                50               0                
5.0252                         0.890743007854886 171.079399628226 0.454507493519773 -107.512615965991 0.454507493519776 -107.512615965991 0.890744312742281 153.895109747818 
! Gamma         0                0                0                0                
! Port Impedance         50               0                50               0                
5.0256                         0.890747873122814 171.075422369049 0.454497961994432 -107.51740056436 0.454497961994434 -107.517400564361 0.890749198976492 153.889514569592 
! Gamma         0                0                0                0                
! Port Impedance         50               0                50               0                
5.026                          0.890752736176826 171.071445215435 0.454488434570097 -107.522185096002 0.454488434570099 -107.522185096003 0.890754083012253 153.883919446001 
! Gamma         0                0                0                0                
! Port Impedance         50               0                50               0                
5.0264                         0.890757597017298 171.067468167288 0.454478911246124 -107.526969560985 0.454478911246127 -107.526969560986 0.890758964850338 153.878324376991 
! Gamma         0                0                0                0                
! Port Impedance         50               0                50               0                
5.0268                         0.890762455644603 171.063491224514 0.454469392021869 -107.53175395938 0.454469392021871 -107.531753959381 0.890763844491523 153.872729362508 
! Gamma         0                0                0                0                
! Port Impedance         50               0                50               0                
5.0272                         0.890767312059116 171.059514387015 0.454459876896689 -107.536538291257 0.454459876896691 -107.536538291258 0.890768721936591 153.867134402497 
! Gamma         0                0                0                0                
! Port Impedance         50               0                50               0                
5.0276                         0.89077216626121 171.055537654699 0.454450365869941 -107.541322556685 0.454450365869943 -107.541322556686 0.890773597186324 153.861539496906 
! Gamma         0                0                0                0                
! Port Impedance         50               0                50               0                
5.028                          0.890777018251261 171.051561027468 0.454440858940984 -107.546106755734 0.454440858940987 -107.546106755735 0.89077847024151 153.85594464568  
! Gamma         0                0                0                0                
! Port Impedance         50               0                50               0                
5.0284                         0.89078186802964 171.047584505227 0.454431356109179 -107.550890888474 0.454431356109182 -107.550890888475 0.890783341102938 153.850349848769 
! Gamma         0                0                0                0                
! Port Impedance         50               0                50               0                
5.0288                         0.890786715596721 171.043608087881 0.454421857373885 -107.555674954975 0.454421857373888 -107.555674954976 0.890788209771403 153.844755106119 
! Gamma         0                0                0                0                
! Port Impedance         50               0                50               0                
5.0292                         0.890791560952876 171.039631775333 0.454412362734465 -107.560458955307 0.454412362734467 -107.560458955307 0.890793076247701 153.839160417678 
! Gamma         0                0                0                0                
! Port Impedance         50               0                50               0                
5.0296                         0.890796404098478 171.035655567489 0.45440287219028 -107.565242889539 0.454402872190283 -107.56524288954 0.890797940532632 153.833565783396 
! Gamma         0                0                0                0                
! Port Impedance         50               0                50               0                
5.03                           0.890801245033897 171.031679464251 0.454393385740696 -107.570026757742 0.454393385740698 -107.570026757742 0.890802802627   153.827971203222 
! Gamma         0                0                0                0                
! Port Impedance         50               0                50               0                
5.0304                         0.890806083759505 171.027703465525 0.454383903385075 -107.574810559985 0.454383903385078 -107.574810559986 0.890807662531611 153.822376677106 
! Gamma         0                0                0                0                
! Port Impedance         50               0                50               0                
5.0308                         0.890810920275674 171.023727571214 0.454374425122785 -107.579594296338 0.454374425122788 -107.579594296339 0.890812520247277 153.816782204997 
! Gamma         0                0                0                0                
! Port Impedance         50               0                50               0                
5.0312                         0.890815754582773 171.019751781222 0.454364950953192 -107.584377966872 0.454364950953194 -107.584377966873 0.890817375774811 153.811187786846 
! Gamma         0                0                0                0                
! Port Impedance         50               0                50               0                
5.0316                         0.890820586681173 171.015776095453 0.454355480875663 -107.589161571656 0.454355480875666 -107.589161571657 0.890822229115031 153.805593422605 
! Gamma         0                0                0                0                
! Port Impedance         50               0                50               0                
5.032                          0.890825416571244 171.01180051381  0.454346014889567 -107.59394511076 0.45434601488957 -107.593945110761 0.890827080268756 153.799999112225 
! Gamma         0                0                0                0                
! Port Impedance         50               0                50               0                
5.0324                         0.890830244253355 171.007825036198 0.454336552994274 -107.598728584255 0.454336552994277 -107.598728584256 0.890831929236812 153.794404855659 
! Gamma         0                0                0                0                
! Port Impedance         50               0                50               0                
5.0328                         0.890835069727876 171.00384966252  0.454327095189155 -107.603511992209 0.454327095189158 -107.60351199221 0.890836776020027 153.788810652859 
! Gamma         0                0                0                0                
! Port Impedance         50               0                50               0                
5.0332                         0.890839892995174 170.999874392679 0.454317641473582 -107.608295334694 0.454317641473585 -107.608295334695 0.890841620619233 153.783216503778 
! Gamma         0                0                0                0                