! Touchstone file exported from HFSS 2024.1.0
!        File:           C:/Users/phobo/Documents/Ansoft/hfss_resonance_simulator.aedt
!        Generated:      08:36:53 PM May 27, 2025
!        Design:         Resonator_7252456e-6GHz_2_ports_v8
!        Project:        hfss_resonance_simulator
!        Setup:          Setup1
!        Solution:       Sweep
!
# GHz S MA R 50.000000
! Terminal data exported
! Port[1] = 1
! Port[2] = 2
3                              0.491933257835961 -161.976942676601 0.870632913365271 -74.9297822423618 0.870632913365271 -74.9297822423618 0.491933257835961 -167.882621808122 
! Gamma         0                0                0                0                
! Port Impedance         50               0                50               0                
3.007                          0.492823412005011 -162.133280387438 0.870129349338213 104.907767428307 0.87012934933821 104.907767428307 0.492823412005011 -168.051184755949 
! Gamma         0                0                0                0                
! Port Impedance         50               0                50               0                
3.014                          0.493706767296501 -162.289153819851 0.869628442454385 -75.2542498652189 0.869628442454383 -75.2542498652188 0.493706767296501 -168.219345910587 
! Gamma         0                0                0                0                
! Port Impedance         50               0                50               0                
3.021                          0.49458709287839 -162.445391038155 0.869128073161892 -75.4159694492709 0.869128073161892 -75.4159694492709 0.49458709287839 -168.386547860386 
! Gamma         0                0                0                0                
! Port Impedance         50               0                50               0                
3.028                          0.49546560940959 -162.601168773095 0.86862755533795 -75.5776593231797 0.868627555337949 -75.5776593231796 0.49546560940959 -168.554149873264 
! Gamma         0                0                0                0                
! Port Impedance         50               0                50               0                
3.035                          0.496359062433911 -162.757746698066 0.868117319916916 104.259478769067 0.868117319916915 104.259478769067 0.496359062433911 -168.7232957638  
! Gamma         0                0                0                0                
! Port Impedance         50               0                50               0                
3.042                          0.497238419783704 -162.913694121986 0.867613942886468 -75.9023185509893 0.867613942886471 -75.9023185509893 0.497238419783704 -168.890942979993 
! Gamma         0                0                0                0                
! Port Impedance         50               0                50               0                
3.049                          0.498115410917913 -163.069131671688 0.867110741143296 103.935854766028 0.867110741143299 103.935854766028 0.498115410917913 -169.059158796257 
! Gamma         0                0                0                0                
! Port Impedance         50               0                50               0                
3.056                          0.498980194360975 -163.223861480683 0.866613388793112 -76.2250779140643 0.866613388793113 -76.2250779140643 0.498980194360976 -169.226294347446 
! Gamma         0                0                0                0                
! Port Impedance         50               0                50               0                
3.063                          0.499861662325767 -163.380358143548 0.866105258347348 -76.3871234513138 0.866105258347341 -76.3871234513138 0.499861662325767 -169.393888759079 
! Gamma         0                0                0                0                
! Port Impedance         50               0                50               0                
3.07                           0.500740469070509 -163.535866426132 0.86559747148143 103.450832801071 0.865597471481431 103.450832801071 0.500740469070509 -169.562467971726 
! Gamma         0                0                0                0                
! Port Impedance         50               0                50               0                
3.077                          0.501608926539695 -163.691677175181 0.865094494732048 103.289653033156 0.865094494732044 103.289653033156 0.501608926539695 -169.729016758507 
! Gamma         0                0                0                0                
! Port Impedance         50               0                50               0                
3.084                          0.502474299698116 -163.846450003355 0.864592145547764 -76.8715178643136 0.864592145547767 -76.8715178643137 0.502474299698115 -169.896585725273 
! Gamma         0                0                0                0                
! Port Impedance         50               0                50               0                
3.091                          0.503349994686583 -164.002276085786 0.864082625012803 102.966583887942 0.864082625012803 102.966583887942 0.503349994686584 -170.064556138331 
! Gamma         0                0                0                0                
! Port Impedance         50               0                50               0                
3.098                          0.504206585675704 -164.157459479923 0.863583070098787 102.806157816186 0.863583070098789 102.806157816186 0.504206585675704 -170.230224887706 
! Gamma         0                0                0                0                
! Port Impedance         50               0                50               0                
3.105                          0.505073604722297 -164.312513246221 0.863076273461864 -77.3552484685373 0.863076273461871 -77.3552484685372 0.505073604722297 -170.397983690853 
! Gamma         0                0                0                0                
! Port Impedance         50               0                50               0                
3.112                          0.50593980316579 -164.467906983794 0.86256878889313 -77.5165367034416 0.86256878889313 -77.5165367034416 0.50593980316579 -170.565166423089 
! Gamma         0                0                0                0                
! Port Impedance         50               0                50               0                
3.119                          0.506804502403208 -164.623009386581 0.862061016601397 -77.6778215986125 0.862061016601401 -77.6778215986125 0.506804502403208 -170.732633810644 
! Gamma         0                0                0                0                
! Port Impedance         50               0                50               0                
3.126                          0.507660777745761 -164.777753956764 0.861557040908245 -77.8385200149515 0.861557040908243 -77.8385200149516 0.507660777745761 -170.899286073139 
! Gamma         0                0                0                0                
! Port Impedance         50               0                50               0                
3.133                          0.50851861978712 -164.932640297325 0.861050993454976 102.000628240232 0.861050993454978 102.000628240232 0.50851861978712 -171.066103222211 
! Gamma         0                0                0                0                
! Port Impedance         50               0                50               0                
3.14                           0.509375463590077 -165.087549388334 0.860544384150172 101.839813644719 0.860544384150165 101.839813644719 0.509375463590078 -171.232823322229 
! Gamma         0                0                0                0                
! Port Impedance         50               0                50               0                
3.147                          0.510234455639615 -165.242222891505 0.860035348272466 -78.321263752388 0.86003534827247 -78.321263752388 0.510234455639615 -171.400304613271 
! Gamma         0                0                0                0                
! Port Impedance         50               0                50               0                
3.154                          0.511085923002428 -165.397119212465 0.859529626777782 -78.4817431038748 0.859529626777785 -78.4817431038748 0.511085923002428 -171.566366995285 
! Gamma         0                0                0                0                
! Port Impedance         50               0                50               0                
3.161                          0.51193722298615 -165.551675847493 0.859022863328579 -78.6423070152275 0.859022863328577 -78.6423070152276 0.51193722298615 -171.732938182962 
! Gamma         0                0                0                0                
! Port Impedance         50               0                50               0                
3.168                          0.51278177328194 -165.705909040014 0.858518988135863 101.197578651386 0.858518988135866 101.197578651386 0.51278177328194 -171.898933657213 
! Gamma         0                0                0                0                
! Port Impedance         50               0                50               0                
3.175                          0.51363523173181 -165.860475299863 0.858008653058818 101.036747890047 0.858008653058821 101.036747890047 0.513635231731809 -172.066028920042 
! Gamma         0                0                0                0                
! Port Impedance         50               0                50               0                
3.182                          0.514479632608218 -166.014860210833 0.857502599197993 100.876545219519 0.857502599197992 100.876545219519 0.514479632608218 -172.232049350129 
! Gamma         0                0                0                0                
! Port Impedance         50               0                50               0                
3.189                          0.515323177382817 -166.168810924465 0.85699592930893 -79.2836651358083 0.856995929308931 -79.2836651358083 0.515323177382817 -172.398519347152 
! Gamma         0                0                0                0                
! Port Impedance         50               0                50               0                
3.196                          0.516155187516381 -166.322708305584 0.856495080195987 100.557023430954 0.856495080195986 100.557023430954 0.516155187516381 -172.563244832508 
! Gamma         0                0                0                0                
! Port Impedance         50               0                50               0                
3.203                          0.517005757381164 -166.477445055381 0.855981919689155 100.396231480694 0.855981919689154 100.396231480694 0.517005757381163 -172.730091983232 
! Gamma         0                0                0                0                
! Port Impedance         50               0                50               0                
3.21                           0.517844011540474 -166.631472165309 0.855475060835597 -79.7637038114859 0.855475060835597 -79.7637038114859 0.517844011540475 -172.895935457663 
! Gamma         0                0                0                0                
! Port Impedance         50               0                50               0                
3.217                          0.518680878289505 -166.785098614455 0.854967921326192 100.076356987982 0.854967921326189 100.076356987982 0.518680878289505 -173.062187409581 
! Gamma         0                0                0                0                
! Port Impedance         50               0                50               0                
3.224                          0.51951545632229 -166.938865326348 0.854461052735725 -80.083444490732 0.854461052735725 -80.083444490732 0.51951545632229 -173.228023655116 
! Gamma         0                0                0                0                
! Port Impedance         50               0                50               0                
3.231                          0.520354091935243 -167.092749846018 0.853950595178814 -80.2435765415714 0.853950595178813 -80.2435765415714 0.520354091935242 -173.394403237125 
! Gamma         0                0                0                0                
! Port Impedance         50               0                50               0                
3.238                          0.521180375770182 -167.246637524812 0.853446551291908 -80.4027385628274 0.853446551291909 -80.4027385628274 0.521180375770182 -173.558839600843 
! Gamma         0                0                0                0                
! Port Impedance         50               0                50               0                
3.245                          0.522016053501511 -167.400331049247 0.852935659875179 99.4372001925171 0.85293565987518 99.4372001925171 0.522016053501511 -173.725268565719 
! Gamma         0                0                0                0                
! Port Impedance         50               0                50               0                
3.252                          0.522843334591519 -167.554069814614 0.85242879319813 -80.7221891743888 0.852428793198132 -80.7221891743889 0.522843334591519 -173.890308534164 
! Gamma         0                0                0                0                
! Port Impedance         50               0                50               0                
3.259                          0.523667386436703 -167.707474986683 0.851922806586695 -80.8814515816723 0.851922806586696 -80.8814515816723 0.523667386436703 -174.055428176661 
! Gamma         0                0                0                0                
! Port Impedance         50               0                50               0                
3.266                          0.524501121215449 -167.861350262124 0.851409756723365 -81.0414498277772 0.851409756723363 -81.0414498277772 0.524501121215449 -174.221549393431 
! Gamma         0                0                0                0                
! Port Impedance         50               0                50               0                
3.273                          0.525327434693833 -168.014711313729 0.850900162391568 -81.2010176395131 0.850900162391569 -81.2010176395131 0.525327434693833 -174.387323965297 
! Gamma         0                0                0                0                
! Port Impedance         50               0                50               0                
3.28                           0.52614480401697 -168.167850176724 0.850394993638804 -81.3599210828067 0.850394993638807 -81.3599210828068 0.52614480401697 -174.55199198889 
! Gamma         0                0                0                0                
! Port Impedance         50               0                50               0                
3.287                          0.52696736378174 -168.321035118566 0.84988552023724 -81.5193288022413 0.84988552023724 -81.5193288022413 0.52696736378174 -174.717622485916 
! Gamma         0                0                0                0                
! Port Impedance         50               0                50               0                
3.294                          0.527779342744606 -168.474062969127 0.849381519325722 98.3221118119204 0.849381519325722 98.3221118119204 0.527779342744606 -174.881713407032 
! Gamma         0                0                0                0                
! Port Impedance         50               0                50               0                
3.301                          0.528604549385105 -168.627675815872 0.848868205535683 98.1624358533686 0.848868205535682 98.1624358533686 0.528604549385105 -175.047452477391 
! Gamma         0                0                0                0                
! Port Impedance         50               0                50               0                
3.308                          0.529422375584755 -168.780922429702 0.848358384310659 -81.9967239949275 0.848358384310662 -81.9967239949274 0.529422375584756 -175.212525560153 
! Gamma         0                0                0                0                
! Port Impedance         50               0                50               0                
3.315                          0.530228073895728 -168.932838069649 0.847855052265908 97.8448065578271 0.847855052265909 97.8448065578271 0.530228073895729 -175.377548814697 
! Gamma         0                0                0                0                
! Port Impedance         50               0                50               0                
3.322                          0.531037205119325 -169.085484244113 0.847348503733297 -82.3138688784024 0.847348503733296 -82.3138688784024 0.531037205119325 -175.542253512691 
! Gamma         0                0                0                0                
! Port Impedance         50               0                50               0                
3.329                          0.53185510844744 -169.239146644275 0.846835369843729 -82.4731395710166 0.846835369843725 -82.4731395710165 0.53185510844744 -175.707132497758 
! Gamma         0                0                0                0                
! Port Impedance         50               0                50               0                
3.336                          0.532659878127418 -169.391790086624 0.846329400548796 97.3684529678636 0.846329400548795 97.3684529678636 0.532659878127418 -175.871303977649 
! Gamma         0                0                0                0                
! Port Impedance         50               0                50               0                
3.343                          0.533461987818047 -169.543860753027 0.845824040538703 97.2100751290875 0.845824040538703 97.2100751290875 0.533461987818047 -176.035988988798 
! Gamma         0                0                0                0                
! Port Impedance         50               0                50               0                
3.35                           0.534277759186318 -169.69761990898 0.845308982584975 -82.949194978004 0.845308982584976 -82.949194978004 0.534277759186318 -176.200770047028 
! Gamma         0                0                0                0                
! Port Impedance         50               0                50               0                
3.357                          0.535073753914686 -169.849597652803 0.844805349102171 -83.1071791666827 0.844805349102177 -83.1071791666826 0.535073753914686 -176.364760680563 
! Gamma         0                0                0                0                
! Port Impedance         50               0                50               0                
3.364                          0.535878164613256 -170.002288032748 0.844295323148679 96.7341559544533 0.844295323148674 96.7341559544533 0.535878164613256 -176.529400058345 
! Gamma         0                0                0                0                
! Port Impedance         50               0                50               0                
3.371                          0.536677338975323 -170.154627618032 0.843787552545289 96.5758028648879 0.843787552545287 96.5758028648879 0.536677338975322 -176.693766652193 
! Gamma         0                0                0                0                
! Port Impedance         50               0                50               0                
3.378                          0.537472819166217 -170.306792216859 0.843281073342405 96.4176720650601 0.843281073342405 96.4176720650601 0.537472819166218 -176.857863653021 
! Gamma         0                0                0                0                
! Port Impedance         50               0                50               0                
3.385                          0.53826485925553 -170.458853577782 0.842775736059497 -83.7402411392   0.842775736059495 -83.7402411392   0.538264859255529 -177.021628700618 
! Gamma         0                0                0                0                
! Port Impedance         50               0                50               0                
3.392                          0.539062469242785 -170.611044305823 0.842265785992682 96.1012897665536 0.842265785992685 96.1012897665536 0.539062469242785 -177.18637616107 
! Gamma         0                0                0                0                
! Port Impedance         50               0                50               0                
3.399                          0.539850685793023 -170.762762057899 0.841760795623557 95.9434785715519 0.841760795623556 95.9434785715519 0.539850685793022 -177.350280798997 
! Gamma         0                0                0                0                
! Port Impedance         50               0                50               0                
3.406                          0.540645993000585 -170.915348768538 0.841250206687887 95.7851482768053 0.841250206687886 95.7851482768053 0.540645993000586 -177.514354677851 
! Gamma         0                0                0                0                
! Port Impedance         50               0                50               0                
3.413                          0.541428060098623 -171.066798719587 0.84074708190861 95.6276748522953 0.840747081908609 95.6276748522953 0.541428060098623 -177.677851575822 
! Gamma         0                0                0                0                
! Port Impedance         50               0                50               0                
3.42                           0.542218348796335 -171.218886670095 0.84023762247865 95.4695344021488 0.840237622478652 95.4695344021488 0.542218348796335 -177.842044525608 
! Gamma         0                0                0                0                
! Port Impedance         50               0                50               0                
3.427                          0.542992118486264 -171.370182843222 0.839737791969493 95.3126147726484 0.839737791969492 95.3126147726484 0.542992118486264 -178.004587611481 
! Gamma         0                0                0                0                
! Port Impedance         50               0                50               0                
3.434                          0.543788351326572 -171.522789231291 0.839222395412283 95.1538583257519 0.83922239541228 95.1538583257519 0.543788351326571 -178.169494117205 
! Gamma         0                0                0                0                
! Port Impedance         50               0                50               0                
3.441                          0.544561286377813 -171.674274403456 0.838721053377426 -85.0030986358641 0.83872105337743 -85.0030986358641 0.544561286377813 -178.331922868272 
! Gamma         0                0                0                0                
! Port Impedance         50               0                50               0                
3.448                          0.545340308823101 -171.825674536588 0.838214738341388 -85.1607585380117 0.838214738341393 -85.1607585380117 0.5453403088231  -178.495842539435 
! Gamma         0                0                0                0                
! Port Impedance         50               0                50               0                
3.455                          0.546123548317318 -171.977556248555 0.837704643638378 -85.31874948771  0.837704643638378 -85.31874948771  0.546123548317318 -178.659942726865 
! Gamma         0                0                0                0                
! Port Impedance         50               0                50               0                
3.462                          0.546899904502232 -172.129321276552 0.837198001941866 94.5237654242245 0.837198001941863 94.5237654242245 0.546899904502232 -178.823147874999 
! Gamma         0                0                0                0                
! Port Impedance         50               0                50               0                
3.469                          0.547673504112897 -172.28055277693 0.836692137463177 -85.6337091724285 0.836692137463177 -85.6337091724285 0.547673504112897 -178.986865567927 
! Gamma         0                0                0                0                
! Port Impedance         50               0                50               0                
3.476                          0.548439011777614 -172.431078148228 0.836190558641029 -85.790694853859 0.836190558641027 -85.790694853859 0.548439011777614 -179.15031155949 
! Gamma         0                0                0                0                
! Port Impedance         50               0                50               0                
3.483                          0.549215951421803 -172.58322244832 0.835680464474216 -85.9484320278686 0.83568046447422 -85.9484320278686 0.549215951421802 -179.313641607417 
! Gamma         0                0                0                0                
! Port Impedance         50               0                50               0                
3.49                           0.549978686660234 -172.734077179385 0.835178689993636 93.894721334963  0.835178689993634 93.894721334963  0.549978686660234 -179.476480150689 
! Gamma         0                0                0                0                
! Port Impedance         50               0                50               0                
3.497                          0.550742108417653 -172.884947304127 0.834675463887419 93.737710016356  0.83467546388742 93.737710016356  0.550742108417653 -179.639632663161 
! Gamma         0                0                0                0                
! Port Impedance         50               0                50               0                
3.504                          0.551505085883783 -173.035751979744 0.834171529269806 93.5806120227843 0.8341715292698  93.5806120227843 0.551505085883783 -179.803023974687 
! Gamma         0                0                0                0                
! Port Impedance         50               0                50               0                
3.511                          0.552273026397183 -173.187432735649 0.833663303926769 93.4231843698739 0.833663303926769 93.4231843698739 0.552273026397183 -179.966198524604 
! Gamma         0                0                0                0                
! Port Impedance         50               0                50               0                
3.518                          0.553023884706731 -173.337676203426 0.83316539951193 -86.7331143567416 0.833165399511933 -86.7331143567416 0.553023884706732 179.871447489943 
! Gamma         0                0                0                0                
! Port Impedance         50               0                50               0                
3.525                          0.553777325972151 -173.488221969933 0.832664802450025 93.1102762713157 0.832664802450019 93.1102762713157 0.553777325972151 179.708774512565 
! Gamma         0                0                0                0                
! Port Impedance         50               0                50               0                
3.532                          0.554544111919821 -173.639973556446 0.832154329397533 -87.0473448279619 0.832154329397532 -87.0473448279619 0.554544111919821 179.545283900522 
! Gamma         0                0                0                0                
! Port Impedance         50               0                50               0                
3.539                          0.55529494343933 -173.790475001864 0.831653489014932 92.7960702678096 0.831653489014934 92.7960702678096 0.555294943439331 179.382615537483 
! Gamma         0                0                0                0                
! Port Impedance         50               0                50               0                
3.546                          0.556041907869653 -173.940732054311 0.831154255654553 -87.3603591199457 0.831154255654556 -87.3603591199457 0.556041907869653 179.22001381442  
! Gamma         0                0                0                0                
! Port Impedance         50               0                50               0                
3.553                          0.556794179251324 -174.091553195712 0.830650493259258 92.4827852067864 0.830650493259252 92.4827852067864 0.556794179251324 179.057123609284 
! Gamma         0                0                0                0                
! Port Impedance         50               0                50               0                
3.56                           0.557542709393397 -174.242088694402 0.830148256158064 92.3260488885486 0.830148256158058 92.3260488885486 0.557542709393397 178.894186471499 
! Gamma         0                0                0                0                
! Port Impedance         50               0                50               0                
3.567                          0.558291258666343 -174.392651092445 0.829645026801676 92.169178950665  0.829645026801671 92.169178950665  0.558291258666343 178.731008993775 
! Gamma         0                0                0                0                
! Port Impedance         50               0                50               0                
3.574                          0.559030033243471 -174.542996401853 0.829147406636359 92.0130587307763 0.829147406636364 92.0130587307763 0.55903003324347 178.569113863405 
! Gamma         0                0                0                0                
! Port Impedance         50               0                50               0                
3.581                          0.559770341119294 -174.693299482071 0.828647793216872 -88.1433580455823 0.828647793216869 -88.1433580455823 0.559770341119294 178.406583390906 