! Touchstone file exported from HFSS 2024.1.0
!        File:           C:/Users/alex_0000/Desktop/hfss_resonance_simulator (1).aedt
!        Generated:      06:27:55 PM Jun  4, 2025
!        Design:         hfssO1XZ3E2
!        Project:        hfss_resonance_simulator (1)
!        Setup:          Setup1
!        Solution:       Sweep
!
! Created with skrf (http://scikit-rf.org).
# GHz S RI R 50.0 
! Port[1] = 1
! Port[2] = 2
!freq ReS11 ImS11 ReS21 ImS21 ReS12 ImS12 ReS22 ImS22
7.259986 -0.0035588938456682416 0.007220764032605507 -0.9073072569429266 -0.4203911718424284 -0.907307256942932 -0.4203911718424309 -0.003207779702422269 0.007383434026177527
7.260056 -0.003578659422634661 0.007233877663576662 -0.9073283531816605 -0.42034524472679646 -0.9073283531816668 -0.4203452447267994 -0.0032042559942619436 0.0074073152124363145
7.260126 -0.0035988313054272966 0.007247265742695127 -0.9073496503514258 -0.42029886821070983 -0.9073496503514312 -0.42029886821071233 -0.003200666758155112 0.007431686305490785
7.260196 -0.003619421897751595 0.007260936694429493 -0.9073711545816037 -0.42025202854371113 -0.9073711545816101 -0.42025202854371413 -0.0031970099514230005 0.007456562282714055
7.260266 -0.003640444113396506 0.00727489929162889 -0.9073928722526446 -0.4202047114082449 -0.9073928722526501 -0.4202047114082474 -0.0031932834456709492 0.00748195873821049
7.260336 -0.0036619114027366833 0.007289162673664239 -0.9074148100090201 -0.4201569018901678 -0.9074148100090256 -0.4201569018901703 -0.0031894850222450913 0.00750789191498603
7.260406 -0.003683837780896191 0.0073037363657922115 -0.9074369747730697 -0.42010858444726207 -0.9074369747730752 -0.42010858444726457 -0.003185612367397879 0.007534378738996386
7.260476 -0.0037062378576920127 0.007318630299755789 -0.9074593737596619 -0.420059742875852 -0.9074593737596683 -0.42005974287585496 -0.003181663067143188 0.0075614368554309365
7.260546 -0.0037291268695329484 0.0073338548356576706 -0.9074820144917884 -0.4200103602752912 -0.9074820144917939 -0.4200103602752937 -0.0031776346017695543 0.007589084667346768
7.260616 -0.0037525207133521188 0.007349420785346577 -0.9075049048172327 -0.41996041900997527 -0.9075049048172381 -0.41996041900997777 -0.0031735243399839365 0.007617341376769476
7.260686 -0.0037764359828116054 0.007365339437296818 -0.9075280529262454 -0.4199099006690636 -0.9075280529262508 -0.41990990066906614 -0.0031693295326802925 0.007646227028548968
7.260756 -0.003800890006889732 0.0073816225831480455 -0.9075514673704491 -0.41985878602335236 -0.9075514673704547 -0.4198587860233549 -0.0031650473062608433 0.007675762557105869
7.260826 -0.0038259008910591506 0.007398282546088296 -0.9075751570830072 -0.4198070549792663 -0.9075751570830135 -0.41980705497926923 -0.003160674655521552 0.00770596983634848
7.260896 -0.0038514875612805357 0.007415332211115717 -0.9075991314000988 -0.4197546865298283 -0.9075991314001053 -0.4197546865298312 -0.003156208436028619 0.0077368717329225605
7.260966 -0.003877669811016079 0.007432785057418662 -0.9076234000839613 -0.4197016587020409 -0.9076234000839667 -0.4197016587020434 -0.003151645355962126 0.007768492163225577
7.261036 -0.0039044683514905727 0.007450655193084271 -0.9076479733474181 -0.4196479485008244 -0.9076479733474244 -0.4196479485008273 -0.0031469819673922822 0.007800856154365882
7.261106 -0.003931904865527137 0.00746895739211848 -0.9076728618802122 -0.4195935318488302 -0.9076728618802177 -0.4195935318488327 -0.003142214656903063 0.007833989909325425
7.261176 -0.003960002065182078 0.0074877071342962466 -0.9076980768771525 -0.4195383835220355 -0.907698076877159 -0.4195383835220384 -0.003137339635560239 0.00786792087686943
7.261246 -0.003988783753563652 0.0075069206477202605 -0.9077236300683328 -0.4194824770806058 -0.9077236300683383 -0.41948247708060843 -0.0031323529281249117 0.00790267782651215
7.261316 -0.004018274891118968 0.0075266149546883866 -0.9077495337514463 -0.4194257847948632 -0.9077495337514517 -0.41942578479486575 -0.003127250361460428 0.007938290928850875
7.261386 -0.004048501666861799 0.0075468079207978165 -0.9077758008266127 -0.4193682775655164 -0.9077758008266181 -0.4193682775655189 -0.00312202755207291 0.007974791842004192
7.261456 -0.00407949157488556 0.007567518307865129 -0.9078024448336609 -0.4193099248381628 -0.9078024448336672 -0.41930992483816576 -0.003116679892695734 0.008012213804289429
7.261526 -0.004111273496692258 0.007588765830826908 -0.9078294799923081 -0.41925069451112945 -0.9078294799923144 -0.4192506945111324 -0.0031112025378278764 0.008050591734215427
7.261596 -0.004143877789815385 0.007610571219035615 -0.9078569212453692 -0.4191905528362818 -0.9078569212453755 -0.41919055283628476 -0.003105590388141948 0.008089962337896838
7.261666 -0.004177336383337517 0.007632956282364678 -0.9078847843053044 -0.41912946431210474 -0.9078847843053107 -0.4191294643121076 -0.0030998380736603523 0.008130364224969076
7.261736 -0.004211682880919127 0.007655943982514364 -0.9079130857044143 -0.41906739156834416 -0.9079130857044206 -0.4190673915683471 -0.0030939399355541116 0.008171838033627053
7.261806 -0.0042469526720342226 0.007679558510087104 -0.9079418428490197 -0.41900429524139277 -0.907941842849026 -0.4190042952413957 -0.0030878900064769386 0.008214426565537076
7.261876 -0.0042831830521966605 0.007703825367905399 -0.9079710740779974 -0.4189401338395702 -0.9079710740780037 -0.4189401338395731 -0.0030816819892551966 0.008258174931869018
7.261946 -0.004320413353028536 0.007728771461208667 -0.9080007987260607 -0.41887486359738035 -0.908000798726067 -0.4188748635973833 -0.003075309233804036 0.008303130711072958
7.262016 -0.004358685083134811 0.007754425195394112 -0.9080310371922747 -0.4188084383176031 -0.9080310371922811 -0.418808438317606 -0.003068764712051554 0.008349344120011298
7.262086 -0.004398042080830654 0.007780816582040251 -0.9080618110143375 -0.418740809199966 -0.9080618110143439 -0.41874080919996887 -0.003062040990722894 0.008396868199290678
7.262155999999999 -0.004438530679910667 0.007807977354057607 -0.9080931429491229 -0.41867192465523273 -0.9080931429491292 -0.41867192465523567 -0.0030551302017335705 0.008445759014689127
7.262225999999999 -0.004480199889766808 0.00783594109091464 -0.9081250570601959 -0.41860173010304585 -0.9081250570602022 -0.4186017301030488 -0.0030480240099350917 0.008496075875883816
7.262295999999999 -0.004523101591370507 0.00786474335488157 -0.9081575788129339 -0.4185301677520047 -0.9081575788129403 -0.41853016775200763 -0.003040713577961519 0.008547881574476508
7.262365999999999 -0.0045672907506824345 0.007894421839604265 -0.9081907351781112 -0.418457176359997 -0.9081907351781175 -0.4184571763599999 -0.0030331895278486844 0.00860124264337409
7.262435999999999 -0.004612825651427055 0.00792501653220608 -0.9082245547448264 -0.41838269097268815 -0.9082245547448337 -0.4183826909726915 -0.0030254418990948166 0.008656229639649356
7.262505999999999 -0.004659768149247726 0.007956569890364567 -0.9082590678436727 -0.4183066426380292 -0.9082590678436792 -0.41830664263803213 -0.0030174601027340864 0.008712917453367762
7.262575999999999 -0.004708183949579392 0.007989127036168863 -0.9082943066814222 -0.41822895809379307 -0.9082943066814294 -0.41822895809379645 -0.0030092328710169705 0.008771385645488317
7.262645999999999 -0.004758142911905373 0.00802273596834478 -0.908330305488334 -0.4181495594255274 -0.9083303054883413 -0.4181495594255307 -0.0030007482021788857 0.008831718817714324
7.262715999999999 -0.004809719383270185 0.008057447795316301 -0.9083671006795976 -0.4180683636912916 -0.9083671006796039 -0.41806836369129446 -0.002991993299716504 0.008894007018130269
7.262785999999999 -0.004862992564521538 0.008093316991074063 -0.9084047310324739 -0.41798528250951567 -0.9084047310324802 -0.4179852825095186 -0.0029829545055585576 0.008958346186674227
7.262855999999999 -0.004918046912956683 0.00813040167687601 -0.9084432378809411 -0.4179002216056622 -0.9084432378809484 -0.41790022160566553 -0.0029736172263750095 0.009024838644974739
7.262925999999999 -0.004974972585758419 0.008168763931673914 -0.9084826653299398 -0.41781308031271536 -0.9084826653299471 -0.4178130803127187 -0.002963965852189809 0.00909359363596034
7.262995999999999 -0.0050338659290669096 0.008208470134800526 -0.9085230604914819 -0.41772375102007414 -0.9085230604914883 -0.417723751020077 -0.002953983666356497 0.009164727919161935
7.263065999999999 -0.005094830018315602 0.008249591344863243 -0.908564473745358 -0.41763211856434906 -0.9085644737453652 -0.4176321185643524 -0.0029436527458128275 0.009238366428428818
7.263135999999999 -0.005157975256142068 0.008292203719470717 -0.9086069590274223 -0.41753805955493933 -0.9086069590274286 -0.4175380595549423 -0.002932953850349996 0.009314643000077867
7.263205999999999 -0.005223420035254182 0.008336388980875678 -0.9086505741489295 -0.4174414416260164 -0.9086505741489358 -0.4174414416260193 -0.002921866299450546 0.009393701180137867
7.263275999999999 -0.005291291474517155 0.00838223493369333 -0.9086953811509474 -0.4173421226053384 -0.9086953811509547 -0.4173421226053417 -0.0029103678351008423 0.009475695121278358
7.263345999999999 -0.0053617262379922065 0.008429836041431712 -0.9087414466983422 -0.4172399495890316 -0.9087414466983486 -0.4172399495890345 -0.0028984344685941015 0.009560790580710715
7.263415999999999 -0.005434871447971877 0.00847929406984506 -0.908788842518649 -0.41713475790954563 -0.9087888425186562 -0.41713475790954896 -0.0028860403091521838 0.00964916603323283
7.263485999999999 -0.0055108857048202725 0.008530718806528533 -0.9088376458919016 -0.4170263699821874 -0.9088376458919089 -0.4170263699821907 -0.002873157371807045 0.009741013914620627
7.2635559999999995 -0.005589940228606332 0.008584228866995622 -0.9088879401983955 -0.4169145940132993 -0.9088879401984028 -0.4169145940133026 -0.002859755361535219 0.009836542014008897
7.2636259999999995 -0.005672220139667169 0.008639952600207206 -0.9089398155326643 -0.41679922255010154 -0.9089398155326789 -0.4167992225500887 -0.002845801430145088 0.009935975036171836
7.2636959999999995 -0.005757925898378028 0.008698029107810508 -0.9089933693930825 -0.4166800308493225 -0.9089933693930897 -0.4166800308493258 -0.002831259901849671 0.010039556358572814
7.263765999999999 -0.005847274927653143 0.008758609394108564 -0.9090487074581802 -0.4165567750376413 -0.9090487074581868 -0.41655677503764427 -0.0028160919627108444 0.01014755001202196
7.263835999999999 -0.005940503445798159 0.008821857666927963 -0.9091059444628028 -0.4164291900319779 -0.90910594446281 -0.41642919003198126 -0.0028002553082643687 0.010260242919026252
7.263906 -0.006037868542279861 0.008887952812790617 -0.909165205189281 -0.41629698718256275 -0.9091652051892892 -0.41629698718256647 -0.002783703742663877 0.010377947429456798
7.263976 -0.0061396505347583235 0.008957090074551484 -0.9092266255916371 -0.41615985159460106 -0.9092266255916444 -0.4161598515946044 -0.0027663867213186064 0.010501004201181937
7.264046 -0.006246155652971205 0.00902948296418626 -0.9092903540741687 -0.41601743907617345 -0.909290354074176 -0.4160174390761767 -0.0027482488276028214 0.010629785481002397
7.264116 -0.006357719103456724 0.009105365450674117 -0.9093565529497628 -0.4158693726499783 -0.909356552949771 -0.415869372649982 -0.0027292291722144854 0.010764698853183296
7.264186 -0.006474708579802447 0.009184994469914621 -0.9094254001079657 -0.4157152385546996 -0.9094254001079729 -0.41571523855470294 -0.002709260701578943 0.010906191534374459
7.264256 -0.006597528295815351 0.009268652813304986 -0.9094970909289789 -0.4155545816465016 -0.909497090928987 -0.4155545816465054 -0.002688269398790135 0.011054755310395407
7.264326 -0.006726623634785673 0.009356652463661085 -0.9095718404869718 -0.41538690009288726 -0.90957184048698 -0.41538690009289103 -0.0026661733572013488 0.01121093223044534
7.264396 -0.006862486527534791 0.009449338461069639 -0.9096498860948686 -0.41521163922887494 -0.9096498860948767 -0.41521163922887866 -0.0026428817022498795 0.011375321196383969
7.264466 -0.007005661696033133 0.009547093399918789 -0.9097314902541396 -0.41502818441670175 -0.9097314902541541 -0.4150281844166893 -0.0026182933318615828 0.011548585616901936
7.264536 -0.0071567539297029865 0.00965034268025601 -0.9098169440867517 -0.4148358527154128 -0.90981694408676 -0.41483585271541656 -0.002592295438805256 0.011731462332358725
7.264606 -0.007316436599155693 0.009759560665702525 -0.9099065713437305 -0.4146338831223916 -0.9099065713437388 -0.4146338831223953 -0.0025647617696988715 0.01192477206351019
7.264676 -0.007485461660147442 0.009875277935739408 -0.9100007331066353 -0.4144214250926911 -0.9100007331066444 -0.41442142509269525 -0.0025355505644126374 0.012129431696266216
7.264746 -0.00766467146114659 0.009998089865935136 -0.9100998333257596 -0.4141975249709027 -0.9100998333257687 -0.4141975249709068 -0.002504502105290566 0.012346468790927049
7.264816 -0.007855012745517942 0.010128666829224572 -0.910204325373973 -0.41396110987901846 -0.9102043253739893 -0.4139611098790068 -0.0024714357874990257 0.012577038799453594
7.264886 -0.008057553339589754 0.010267766386433567 -0.9103147198403122 -0.4137109684857829 -0.9103147198403213 -0.4137109684857871 -0.002436146597696277 0.012822445600228041
7.264956 -0.008273502147154523 0.010416247934294926 -0.9104315938456574 -0.4134457279299923 -0.9104315938456737 -0.41344572792998063 -0.0023984008573534753 0.013084166120283318
7.265026 -0.008504233241028577 0.010575090408465885 -0.9105556022388189 -0.4131638259693859 -0.910555602238828 -0.41316382596939 -0.0023579310451881134 0.01336388002653093
7.265096 -0.008751315065338341 0.01074541381184695 -0.9106874911309094 -0.4128634771618812 -0.9106874911309185 -0.4128634771618853 -0.002314429458547053 0.013663505747424596
7.265166 -0.009016546059858563 0.010928505567963842 -0.9108281143581092 -0.4125426315318716 -0.9108281143581192 -0.41254263153187615 -0.002267540398624159 0.013985244456669429
7.265236 -0.009301998416333314 0.011125853010208919 -0.9109784536389597 -0.4121989236990486 -0.9109784536389761 -0.41219892369903655 -0.0022168504636819165 0.01433163415099684
7.265306 -0.009610072217902237 0.01133918373983751 -0.9111396434304561 -0.4118296097996099 -0.9111396434304735 -0.4118296097995982 -0.0021618763948160528 0.014705616631997277
7.265376 -0.00994356295390213 0.01157051616967005 -0.9113130018113622 -0.4114314886402311 -0.9113130018113724 -0.41143148864023565 -0.002102049724996066 0.015110621132178259
7.265446 -0.01030574643017697 0.01182222338279382 -0.9115000691680324 -0.4110008022875152 -0.9115000691680424 -0.4110008022875197 -0.00203669720888832 0.015550669619085581
7.265516 -0.010700486537326276 0.012097114585402644 -0.9117026570813306 -0.4105331095518376 -0.9117026570813416 -0.4105331095518425 -0.0019650156204129464 0.01603051062793042
7.265586 -0.0111323733915098 0.012398540079040727 -0.9119229106934265 -0.4100231233342274 -0.9119229106934373 -0.41002312333423235 -0.0018860389387613738 0.016555791065503703
7.265656 -0.011606902324153498 0.012730528072201328 -0.9121633890942118 -0.40946449919416633 -0.9121633890942298 -0.4094644991941554 -0.0017985951099553537 0.017133279175484694
7.265726 -0.012130708539468042 0.013097965193655694 -0.9124271700999219 -0.4088495571769549 -0.9124271700999338 -0.40884955717696025 -0.0017012483213747025 0.01777115736478203
7.265796 -0.01271187873641596 0.013506837899916456 -0.9127179885044256 -0.40816891096332847 -0.9127179885044384 -0.4081689109633342 -0.0015922208184375888 0.0184794118305199
7.265866 -0.013360370838388381 0.013964560157383128 -0.9130404209567211 -0.4074109662083634 -0.9130404209567409 -0.4074109662083533 -0.0014692853178113548 0.019270358488665772
7.265936 -0.014088588252713943 0.014480425626185343 -0.9134001368622983 -0.40656123089184204 -0.913400136862311 -0.40656123089184776 -0.0013296143258088044 0.02015936426279662
7.266006 -0.014912179343462683 0.015066243223334327 -0.9138042444865573 -0.40560135004508674 -0.9138042444865779 -0.405601350045077 -0.0011695649067766524 0.021165853958289127
7.266076 -0.015851172311368227 0.01573724904858744 -0.9142617771202535 -0.4045077272158304 -0.9142617771202745 -0.4045077272158202 -0.0009843643788180214 0.022314743915491982
7.266146 -0.016931621886762883 0.016513445690298965 -0.9147843899724221 -0.4032495104812562 -0.9147843899724437 -0.40324951048124674 -0.0007676397116478169 0.023638529446590905
7.266216 -0.01818805880402807 0.01742162213426081 -0.915387382168984 -0.4017855730010755 -0.9153873821690064 -0.40178557300106643 -0.0005106925148472795 0.025180402334376233
7.266286 -0.01966723860899125 0.018498494599888775 -0.9160912347135307 -0.4000598496842732 -0.916091234713554 -0.40005984968426456 -0.0002013447867563557 0.026999044203710888
7.266356 -0.021434070973009093 0.01979576686969806 -0.9169239940218917 -0.3979938823732621 -0.916923994021916 -0.3979938823732538 0.00017797032689512786 0.0291762495120918
7.266425999999999 -0.023581365900062982 0.021388631348954527 -0.9179250928999125 -0.3954744097485172 -0.9179250928999386 -0.3954744097485096 0.0006535122426218 0.03182953789144775
7.266495999999999 -0.026246602504273082 0.02339078273259196 -0.9191517198927762 -0.3923316847557042 -0.9191517198928042 -0.3923316847556973 0.0012662667127041026 0.035134027908565416
7.266565999999999 -0.029642414402298693 0.025982599657399876 -0.9206899294978329 -0.38829929900656385 -0.9206899294978637 -0.388299299006558 0.002083715974250882 0.03936260108850423
7.266635999999999 -0.03411590033015973 0.029468221391776128 -0.9226750684750834 -0.3829341009007944 -0.9226750684751167 -0.38293410090078955 0.003224767728116402 0.044965051022500396
7.266705999999999 -0.04027432951304311 0.034403013148235954 -0.9253316330373321 -0.375440924186499 -0.9253316330373682 -0.375440924186495 0.004918454204143299 0.05273874820469611
7.266775999999999 -0.04928302484626044 0.04191802267514022 -0.929055868695043 -0.3642381294289797 -0.9290558686950946 -0.36423812942896283 0.007663256990305459 0.06424311146688998
7.266845999999999 -0.06368675479383401 0.05471451015618147 -0.9345907129730097 -0.34567438985104215 -0.9345907129730728 -0.34567438985100984 0.012756594051814334 0.08298727463537921
7.266915999999999 -0.09021795080195456 0.0811362940125653 -0.9432683566736554 -0.30906790771815124 -0.9432683566737435 -0.3090679077181068 0.02471193494382558 0.11879203792845884
7.266985999999999 -0.15244943557610383 0.16370590671971127 -0.9527145354834934 -0.2056605942110522 -0.9527145354836349 -0.2056605942109087 0.07134716105746951 0.2120126115666341
7.267055999999999 0.18996291166996268 0.9113271212698846 -0.2650472332522883 0.25129053777072907 -0.2650472332523267 0.25129053777076554 0.8999191300671342 0.23821962369082333
7.267125999999999 0.24812025744159677 -0.07677020448082184 -0.7380842695329547 -0.6227171733617122 -0.7380842695327404 -0.6227171733616421 0.03390226792339557 -0.25750474410187224
7.267195999999999 0.11350447858181362 -0.05081450777691695 -0.8392482404688033 -0.5293369158627159 -0.8392482404687087 -0.5293369158626973 -0.003042293710204376 -0.1243228967172719
7.267265999999999 0.072511552691128 -0.03478395732093261 -0.8657637572951 -0.4939488821765485 -0.865763757295035 -0.49394888217655114 -0.006955009692563831 -0.08012171222893692
7.267335999999999 0.05296472003415599 -0.025613696930753875 -0.8776057381294755 -0.4757593572331595 -0.8776057381294337 -0.475759357233157 -0.007442375838167909 -0.058360418729110845
7.267405999999999 0.041561061454270465 -0.019775068268113778 -0.8842605157002181 -0.4647203859071558 -0.8842605157001754 -0.46472038590717246 -0.007285272145639995 -0.04544559962558585
7.267475999999999 0.03409781987176593 -0.015750343248626456 -0.8885119603759153 -0.45731368666584793 -0.8885119603758869 -0.4573136866658527 -0.006998468126974348 -0.03690200664570153
7.267545999999999 0.028836262647655417 -0.012813269530703239 -0.891459773660443 -0.45199977167137745 -0.8914597736604095 -0.45199977167139926 -0.0067061352227011295 -0.030834063916207903
7.267615999999999 0.024928433890996884 -0.010577402774959135 -0.893623200903531 -0.4480003223567446 -0.8936232009035087 -0.44800032235675336 -0.006439703182918797 -0.026302855964935472
7.267685999999999 0.02191191969635083 -0.008819253737770464 -0.8952786569477867 -0.44488001877511174 -0.8952786569477666 -0.44488001877512107 -0.006204799835097238 -0.02279064745523321
7.267755999999999 0.019513237825002187 -0.007400904741629634 -0.8965865833221511 -0.4423765033099591 -0.8965865833221327 -0.4423765033099693 -0.005999570369041945 -0.019988662905082687
7.2678259999999995 0.0175603429695738 -0.006232744557154338 -0.8976464057940953 -0.44032229821525914 -0.8976464057940777 -0.4403222982152698 -0.005820276260052729 -0.01770137679817286
7.2678959999999995 0.015939610537791624 -0.005254066953327481 -0.8985229824895886 -0.43860549495709655 -0.8985229824895739 -0.43860549495710865 -0.005663072596442399 -0.015798973922688045
7.2679659999999995 0.014572990306237585 -0.004422305956395947 -0.8992604072188052 -0.43714848299081804 -0.8992604072187905 -0.43714848299083015 -0.005524536333557442 -0.014191894067798645
7.268035999999999 0.013405099835115132 -0.0037067406361521262 -0.899889694255617 -0.43589575047660595 -0.8998896942556032 -0.4358957504766185 -0.005401771610408387 -0.012816355630703729
7.268105999999999 0.012395555059227233 -0.0030846478041339697 -0.9004332884740976 -0.4348065442517028 -0.9004332884740847 -0.4348065442517158 -0.005292376149789094 -0.011625705608387797
7.268176 0.011514216484876251 -0.0025388610921163323 -0.9009078311778282 -0.4338502722198759 -0.9009078311778159 -0.4338502722198901 -0.005194369681565926 -0.010585032769906832
7.268246 0.010738135232087621 -0.0020561717080723276 -0.901325920465635 -0.43300352316262175 -0.901325920465623 -0.4330035231626352 -0.005106119847504897 -0.009667693061812529
7.268316 0.010049529837407013 -0.0016262509817634913 -0.9016972679346449 -0.4322480770676957 -0.9016972679346403 -0.4322480770676935 -0.005026276880536463 -0.008852999682401885
7.268386 0.009434409633727861 -0.0012409064817124201 -0.9020294800287056 -0.4315695421345909 -0.902029480028702 -0.43156954213458915 -0.004953719441165622 -0.008124646537827138
7.268456 0.008881615869776326 -0.0008935572154791518 -0.9023285987670324 -0.43095639970996175 -0.9023285987670298 -0.4309563997099604 -0.004887510886359386 -0.007469607123278251
7.268526 0.008382139821757728 -0.0005788562060501199 -0.9025994840382028 -0.4303993215083685 -0.9025994840381925 -0.43039932150838284 -0.0048268643575879126 -0.006877349590032595
7.268596 0.00792862884945232 -0.0002924143440079877 -0.9028460890704335 -0.4298906726760469 -0.9028460890704307 -0.4298906726760456 -0.0047711150085591935 -0.006339266925321093
7.268666 0.007515022623722562 -3.059518449424081e-05 -0.9030716623376113 -0.42942414425242703 -0.9030716623376085 -0.42942414425242575 -0.004719697899201932 -0.005848256478459841
7.268736 0.007136281192802701 0.0002096396932127617 -0.9032788978341373 -0.4289944773605746 -0.9032788978341355 -0.4289944773605737 -0.004672130348328691 -0.005398405083185028
7.268806 0.006788178932649584 0.00043084871934971424 -0.9034700484867365 -0.42859725348700173 -0.9034700484867273 -0.4285972534870165 -0.004627997785896888 -0.004984750083162602
7.268876 0.006467146483576175 0.0006352014827394552 -0.903647012834486 -0.42822873308732584 -0.9036470128344842 -0.42822873308732495 -0.004586942354737372 -0.004603095740427029
7.268946 0.00617014812373507 0.0008245498759389619 -0.9038114020478516 -0.42788573000747443 -0.9038114020478424 -0.4278857300074892 -0.004548653678550928 -0.004249870610790134
7.269016 0.005894585645412179 0.0010004841757766745 -0.9039645922981261 -0.42756551277991434 -0.9039645922981252 -0.4275655127799139 -0.004512861343689334 -0.003922015604195211
7.269086 0.005638222284436181 0.0011643776529296813 -0.9041077660809281 -0.4272657263161133 -0.9041077660809272 -0.4272657263161129 -0.004479328743119959 -0.003616895295366015
7.269156 0.005399121986525474 0.0013174223570018044 -0.9042419451186823 -0.42698432924252344 -0.9042419451186813 -0.42698432924252294 -0.004447848008674351 -0.003332227039415246
7.269226 0.00517560052055166 0.0014606580478568917 -0.9043680167778866 -0.42671954335177475 -0.9043680167778857 -0.4267195433517743 -0.004418235817255009 -0.0030660238575682995
7.269296 0.004966185827868445 0.0015949957574286479 -0.9044867554446755 -0.42646981252184835 -0.9044867554446746 -0.42646981252184796 -0.004390329902636846 -0.0028165480703410003
7.269366 0.00476958563414227 0.0017212371090543665 -0.9045988399463311 -0.42623376909713756 -0.9045988399463301 -0.4262337690971371 -0.004363986139931311 -0.002582273390309871
7.269436 0.004584660817874462 0.0018400902596436063 -0.9047048678463441 -0.4260102061966869 -0.9047048678463367 -0.4260102061967026 -0.004339076097142476 -0.0023618537272773917
7.269506 0.004410403376324359 0.0019521831337056352 -0.9048053672484626 -0.4257980547653162 -0.9048053672484626 -0.4257980547653162 -0.004315484969702207 -0.0021540973588247236
7.269576 0.004245918088847234 0.0020580744711245066 -0.9049008066017811 -0.4255963644461941 -0.9049008066017727 -0.42559636444620935 -0.004293109830501813 -0.001957945419696287
7.269646 0.00409040717351519 0.002158263098691621 -0.9049916028907973 -0.42540428755271903 -0.90499160289079 -0.4254042875527347 -0.004271858141053832 -0.00177245389045737
7.269716 0.003943157382111988 0.002253195749693401 -0.9050781285125462 -0.4252210655690485 -0.9050781285125398 -0.4252210655690645 -0.004251646479728444 -0.0015967784387412825
7.269786 0.003803529093112672 0.0023432736902694977 -0.9051607170798249 -0.4250460177259791 -0.9051607170798258 -0.4250460177259795 -0.004232399451345467 -0.0014301615997879204
7.269856 0.0036709470508090886 0.0024288583594521966 -0.9052396683412516 -0.42487853128909686 -0.9052396683412516 -0.42487853128909686 -0.004214048748769724 -0.0012719218854225546
7.269926 0.003544892467909452 0.0025102761901466446 -0.9053152523709489 -0.4247180532673226 -0.9053152523709498 -0.424718053267323 -0.004196532342510913 -0.001121444491479911
7.269996 0.0034248962629593407 0.002587822746389505 -0.9053877131514191 -0.4245640833049524 -0.9053877131514118 -0.4245640833049681 -0.0041797937785498385 -0.0009781733365790014
7.270066 0.0033105332469204217 0.0026617662876154123 -0.9054572716495214 -0.42441616756509803 -0.9054572716495214 -0.42441616756509803 -0.004163781567943072 -0.0008416042147167096
7.270136 0.0032014171068849707 0.0027323508500974166 -0.9055241284675111 -0.4242738934463917 -0.905524128467512 -0.42427389344639216 -0.004148448654569429 -0.000711278884161723
7.270206 0.003097196062360066 0.002799798920391149 -0.9055884661358219 -0.42413688500400815 -0.9055884661358146 -0.42413688500402386 -0.004133751949685479 -0.0005867799466094775
7.270276 0.0029975490912426722 0.0028643137625056787 -0.9056504511030438 -0.42400479896735077 -0.9056504511030447 -0.4240047989673512 -0.004119651923695989 -0.000467726395989454
7.270346 0.0029021826400898935 0.0029260814497602595 -0.9057102354686343 -0.42387732126590566 -0.9057102354686352 -0.42387732126590605 -0.004106112247159145 -0.000353769736981416
7.270416 0.0028108277477602896 0.0029852726442875766 -0.9057679584963048 -0.4237541639892137 -0.9057679584963056 -0.4237541639892141 -0.004093099474255888 -0.0002445905898428969
7.270486 0.0027232375230883707 0.003042044160100619 -0.9058237479399174 -0.42363506271875395 -0.9058237479399184 -0.4236350627187544 -0.004080582762972518 -0.00013989571217883502
7.270556 0.002639184926730605 0.0030965403396325812 -0.9058777212083455 -0.4235197741798953 -0.9058777212083464 -0.42351977417989567 -0.00406853362718138 -3.9415378708140817e-05
7.270626 0.0025584608152586373 0.0031488942692636003 -0.9059299863916823 -0.4234080741699646 -0.9059299863916832 -0.42340807416996507 -0.004056925716427302 5.709892973542613e-05
7.270695999999999 0.0024808722120403404 0.003199228855556446 -0.90598064316769 -0.42329975572524664 -0.905980643167691 -0.42329975572524703 -0.004045734619912801 0.00014987657014051974
7.270765999999999 0.0024062407747590248 0.003247657780119107 -0.906029783604475 -0.42319462749539666 -0.9060297836044758 -0.4231946274953971 -0.004034937691617185 0.0002391295491649859
7.270835999999999 0.0023344014340542915 0.0032942863491997793 -0.9060774928729903 -0.4230925122983709 -0.9060774928729912 -0.42309251229837136 -0.004024513893979598 0.00032505413329530526
7.270905999999999 0.002265201181321229 0.0033392122509444946 -0.9061238498809537 -0.42299324583296916 -0.9061238498809546 -0.42299324583296954 -0.004014443657850783 0.00040783228302361215
7.270975999999999 0.002198497986962816 0.0033825262319688667 -0.9061689278381124 -0.42289667552925003 -0.9061689278381133 -0.4228966755292505 -0.004004708756814476 0.00048763293288253516
7.271045999999999 0.002134159833058909 0.0034243127032079156 -0.9062127947614202 -0.42280265951982376 -0.9062127947614221 -0.4228026595198246 -0.003995292194168349 0.0005646131365680143
7.271115999999999 0.002072063846484128 0.0034646502832482258 -0.9062555139273502 -0.4227110657176653 -0.9062555139273519 -0.42271106571766615 -0.003986178101100311 0.0006389190933788487
7.271185999999999 0.002012095520606328 0.003503612286776444 -0.9062971442777787 -0.4226217709875577 -0.9062971442777806 -0.42262177098755854 -0.003977351644826237 0.0007106870698785221
7.271255999999999 0.0019541480151103177 0.0035412671644231004 -0.9063377407848945 -0.422534660400341 -0.906337740784888 -0.42253466040035714 -0.003968798945510711 0.0007800442293702946
7.271325999999999 0.0018981215250064105 0.003577678899547583 -0.9063773547797793 -0.42244962656063895 -0.9063773547797811 -0.4224496265606398 -0.003960507001078904 0.0008471093796694495
7.271395999999999 0.0018439227109217854 0.0036129073667834923 -0.906416034248984 -0.4223665689994164 -0.9064160342489858 -0.4223665689994172 -0.003952463618996535 0.0009119936481171791