! Touchstone file exported from HFSS 2024.1.0
!        File:           C:/Users/phobo/Documents/Ansoft/hfss_resonance_simulator.aedt
!        Generated:      07:36:15 AM May 30, 2025
!        Design:         Resonator_7252456e-6GHz_2_ports_v10
!        Project:        hfss_resonance_simulator
!        Setup:          Setup1
!        Solution:       Sweep
!
# GHz S MA R 50.000000
! Terminal data exported
! Port[1] = 1
! Port[2] = 2
5                              0.0372059499192464 162.757078034675 0.999307619028828 -106.671065105108 0.99930761887026 -106.671065105108 0.0372059499192463 163.900791755108 
! Gamma         0                0                0                0                
! Port Impedance         50               0                50               0                
5.0008                         0.0372044198398404 162.739797263565 0.999307633920651 -106.688122269104 0.999307633758154 -106.688122269228 0.0372043919921082 163.883840101093 
! Gamma         0                0                0                0                
! Port Impedance         50               0                50               0                
5.0016                         0.0372028869277189 162.722516640867 0.999307649035428 -106.705179446453 0.99930764886901 -106.7051794467  0.0372028313073703 163.866888600421 
! Gamma         0                0                0                0                
! Port Impedance         50               0                50               0                
5.0024                         0.0372013511828576 162.705236166393 0.999307664373013 -106.722236637157 0.999307664202677 -106.722236637528 0.0372012678649377 163.8499372529   
! Gamma         0                0                0                0                
! Port Impedance         50               0                50               0                
5.0032                         0.0371998126052324 162.687955839955 0.999307679933255 -106.739293841219 0.999307679759008 -106.739293841712 0.0371997016647158 163.832986058339 
! Gamma         0                0                0                0                
! Port Impedance         50               0                50               0                
5.004                          0.0371982711948194 162.670675661362 0.999307695716006 -106.756351058639 0.999307695537853 -106.756351059255 0.0371981327066097 163.816035016548 
! Gamma         0                0                0                0                
! Port Impedance         50               0                50               0                
5.0048                         0.0371967269515944 162.653395630426 0.999307711721117 -106.773408289419 0.999307711539065 -106.773408290157 0.0371965609905249 163.799084127335 
! Gamma         0                0                0                0                
! Port Impedance         50               0                50               0                
5.0056                         0.0371951798755338 162.636115746958 0.999307727948439 -106.79046553356 0.999307727762492 -106.79046553442 0.0371949865163668 163.782133390511 
! Gamma         0                0                0                0                
! Port Impedance         50               0                50               0                
5.0064                         0.0371936299666138 162.618836010769 0.999307744397822 -106.807522791064 0.999307744207989 -106.807522792046 0.0371934092840408 163.765182805885 
! Gamma         0                0                0                0                
! Port Impedance         50               0                50               0                
5.0072                         0.0371920772248106 162.60155642167  0.99930776106912 -106.824580061933 0.999307760875404 -106.824580063036 0.0371918292934524 163.748232373267 
! Gamma         0                0                0                0                
! Port Impedance         50               0                50               0                
5.008                          0.0371905216501007 162.584276979471 0.999307777962181 -106.841637346168 0.999307777764589 -106.841637347392 0.0371902465445072 163.731282092467 
! Gamma         0                0                0                0                
! Port Impedance         50               0                50               0                
5.0088                         0.0371889632424606 162.566997683984 0.999307795076859 -106.858694643771 0.999307794875397 -106.858694645115 0.0371886610371109 163.714331963296 
! Gamma         0                0                0                0                
! Port Impedance         50               0                50               0                
5.0096                         0.0371874020018668 162.54971853502  0.999307812413002 -106.875751954743 0.999307812207676 -106.875751956207 0.037187072771169 163.697381985562 
! Gamma         0                0                0                0                
! Port Impedance         50               0                50               0                
5.0104                         0.037185837928296 162.532439532389 0.999307829970463 -106.892809279085 0.999307829761279 -106.892809280669 0.0371854817465874 163.680432159077 
! Gamma         0                0                0                0                
! Port Impedance         50               0                50               0                
5.0112                         0.0371842710217251 162.515160675902 0.999307847749093 -106.909866616799 0.999307847536056 -106.909866618503 0.0371838879632719 163.663482483652 
! Gamma         0                0                0                0                
! Port Impedance         50               0                50               0                
5.012                          0.0371827012821307 162.497881965371 0.999307865748742 -106.926923967887 0.999307865531858 -106.92692396971 0.0371822914211282 163.646532959096 
! Gamma         0                0                0                0                
! Port Impedance         50               0                50               0                
5.0128                         0.0371811287094899 162.480603400606 0.999307883969262 -106.943981332349 0.999307883748537 -106.943981334291 0.0371806921200623 163.629583585221 
! Gamma         0                0                0                0                
! Port Impedance         50               0                50               0                
5.0136                         0.0371795533037796 162.463324981419 0.999307902410503 -106.961038710188 0.999307902185943 -106.961038712249 0.0371790900599802 163.612634361838 
! Gamma         0                0                0                0                
! Port Impedance         50               0                50               0                
5.0144                         0.0371779750649771 162.446046707619 0.999307921072316 -106.978096101405 0.999307920843927 -106.978096103584 0.0371774852407878 163.595685288758 
! Gamma         0                0                0                0                
! Port Impedance         50               0                50               0                
5.0152                         0.0371763939930593 162.428768579018 0.999307939954553 -106.995153506001 0.999307939722341 -106.995153508298 0.0371758776623912 163.578736365791 
! Gamma         0                0                0                0                
! Port Impedance         50               0                50               0                
5.016                          0.0371748100880037 162.411490595427 0.999307959057064 -107.012210923978 0.999307958821035 -107.012210926392 0.0371742673246966 163.561787592751 
! Gamma         0                0                0                0                
! Port Impedance         50               0                50               0                
5.0168                         0.0371732233497876 162.394212756656 0.9993079783797  -107.029268355337 0.99930797813986 -107.029268357868 0.0371726542276102 163.544838969447 
! Gamma         0                0                0                0                
! Port Impedance         50               0                50               0                
5.0176                         0.0371716337783884 162.376935062518 0.999307997922312 -107.046325800079 0.999307997678666 -107.046325802728 0.037171038371038 163.527890495692 
! Gamma         0                0                0                0                
! Port Impedance         50               0                50               0                
5.0184                         0.0371700413737837 162.359657512821 0.999308017684751 -107.063383258207 0.999308017437305 -107.063383260972 0.0371694197548866 163.510942171297 
! Gamma         0                0                0                0                
! Port Impedance         50               0                50               0                
5.0192                         0.037168446135951 162.342380107378 0.999308037666868 -107.08044072972 0.999308037415628 -107.080440732602 0.0371677983790621 163.493993996075 
! Gamma         0                0                0                0                
! Port Impedance         50               0                50               0                
5.02                           0.0371668480648682 162.325102845999 0.999308057868512 -107.097498214622 0.999308057613486 -107.097498217619 0.0371661742434711 163.477045969838 
! Gamma         0                0                0                0                
! Port Impedance         50               0                50               0                
5.0208                         0.0371652471605129 162.307825728495 0.999308078289537 -107.114555712912 0.999308078030728 -107.114555716025 0.0371645473480199 163.460098092397 
! Gamma         0                0                0                0                
! Port Impedance         50               0                50               0                
5.0216                         0.0371636434228631 162.290548754676 0.999308098929791 -107.131613224593 0.999308098667206 -107.131613227821 0.0371629176926151 163.443150363566 
! Gamma         0                0                0                0                
! Port Impedance         50               0                50               0                
5.0224                         0.0371620368518967 162.273271924355 0.999308119789126 -107.148670749666 0.999308119522771 -107.148670753009 0.0371612852771633 163.426202783157 
! Gamma         0                0                0                0                
! Port Impedance         50               0                50               0                
5.0232                         0.0371604274475918 162.25599523734  0.999308140867393 -107.165728288131 0.999308140597274 -107.165728291589 0.0371596501015711 163.409255350982 
! Gamma         0                0                0                0                
! Port Impedance         50               0                50               0                
5.024                          0.0371588152099264 162.238718693444 0.999308162164441 -107.182785839992 0.999308161890564 -107.182785843564 0.0371580121657451 163.392308066854 
! Gamma         0                0                0                0                
! Port Impedance         50               0                50               0                
5.0248                         0.037157200138879 162.221442292478 0.999308183680124 -107.199843405248 0.999308183402494 -107.199843408934 0.0371563714695922 163.375360930586 
! Gamma         0                0                0                0                
! Port Impedance         50               0                50               0                
5.0256                         0.0371555822344277 162.204166034251 0.999308205414289 -107.216900983901 0.999308205132913 -107.216900987701 0.0371547280130192 163.358413941992 
! Gamma         0                0                0                0                
! Port Impedance         50               0                50               0                
5.0264                         0.0371539614965509 162.186889918575 0.999308227366789 -107.233958575953 0.999308227081673 -107.233958579867 0.0371530817959328 163.341467100885 
! Gamma         0                0                0                0                
! Port Impedance         50               0                50               0                
5.0272                         0.0371523379252272 162.16961394526  0.999308249537474 -107.251016181405 0.999308249248623 -107.251016185431 0.03715143281824 163.324520407077 
! Gamma         0                0                0                0                
! Port Impedance         50               0                50               0                
5.028                          0.037150711520435 162.152338114118 0.999308271926195 -107.268073800258 0.999308271633615 -107.268073804397 0.0371497810798478 163.307573860383 
! Gamma         0                0                0                0                
! Port Impedance         50               0                50               0                
5.0288                         0.0371490822821532 162.135062424959 0.999308294532802 -107.285131432514 0.999308294236499 -107.285131436765 0.0371481265806632 163.290627460616 
! Gamma         0                0                0                0                
! Port Impedance         50               0                50               0                
5.0296                         0.0371474502103603 162.117786877593 0.999308317357146 -107.302189078173 0.999308317057127 -107.302189082536 0.0371464693205933 163.273681207591 
! Gamma         0                0                0                0                
! Port Impedance         50               0                50               0                
5.0304                         0.0371458153050353 162.100511471833 0.999308340399077 -107.319246737237 0.999308340095348 -107.319246741712 0.0371448092995453 163.25673510112  
! Gamma         0                0                0                0                
! Port Impedance         50               0                50               0                
5.0312                         0.037144177566157 162.083236207488 0.999308363658447 -107.336304409707 0.999308363351012 -107.336304414294 0.0371431465174263 163.239789141018 
! Gamma         0                0                0                0                
! Port Impedance         50               0                50               0                
5.032                          0.0371425369937045 162.065961084369 0.999308387135106 -107.353362095585 0.999308386823972 -107.353362100283 0.0371414809741436 163.2228433271   
! Gamma         0                0                0                0                
! Port Impedance         50               0                50               0                
5.0328                         0.0371408935876569 162.048686102287 0.999308410828904 -107.370419794872 0.999308410514077 -107.370419799681 0.0371398126696045 163.20589765918  
! Gamma         0                0                0                0                
! Port Impedance         50               0                50               0                
5.0336                         0.0371392473479933 162.031411261053 0.999308434739691 -107.387477507569 0.999308434421177 -107.387477512488 0.0371381416037165 163.188952137072 
! Gamma         0                0                0                0                
! Port Impedance         50               0                50               0                
5.0344                         0.0371375982746929 162.014136560477 0.999308458867319 -107.404535233677 0.999308458545125 -107.404535238706 0.0371364677763869 163.172006760591 
! Gamma         0                0                0                0                
! Port Impedance         50               0                50               0                
5.0352                         0.0371359463677352 161.996862000371 0.999308483211638 -107.421592973198 0.999308482885768 -107.421592978337 0.0371347911875232 163.155061529552 
! Gamma         0                0                0                0                
! Port Impedance         50               0                50               0                
5.036                          0.0371342916270996 161.979587580544 0.999308507772498 -107.438650726133 0.999308507442959 -107.438650731381 0.037133111837033 163.13811644377  
! Gamma         0                0                0                0                
! Port Impedance         50               0                50               0                
5.0368                         0.0371326340527656 161.962313300809 0.99930853254975 -107.455708492483 0.999308532216548 -107.45570849784 0.0371314297248239 163.12117150306  
! Gamma         0                0                0                0                
! Port Impedance         50               0                50               0                
5.0376                         0.0371309736447128 161.945039160974 0.999308557543245 -107.472766272248 0.999308557206385 -107.472766277715 0.0371297448508036 163.104226707237 
! Gamma         0                0                0                0                
! Port Impedance         50               0                50               0                
5.0384                         0.0371293104029209 161.927765160852 0.999308582752832 -107.489824065432 0.999308582412321 -107.489824071006 0.0371280572148798 163.087282056116 
! Gamma         0                0                0                0                
! Port Impedance         50               0                50               0                
5.0392                         0.0371276443273696 161.910491300253 0.999308608178363 -107.506881872034 0.999308607834206 -107.506881877717 0.0371263668169603 163.070337549514 
! Gamma         0                0                0                0                
! Port Impedance         50               0                50               0                
5.04                           0.037125975418039 161.893217578987 0.999308633819686 -107.523939692055 0.999308633471891 -107.523939697846 0.0371246736569529 163.053393187246 
! Gamma         0                0                0                0                
! Port Impedance         50               0                50               0                
5.0408                         0.0371243036749089 161.875943996866 0.999308659676654 -107.540997525498 0.999308659325225 -107.540997531397 0.0371229777347655 163.036448969128 
! Gamma         0                0                0                0                
! Port Impedance         50               0                50               0                
5.0416                         0.0371226290979593 161.858670553699 0.999308685749117 -107.558055372363 0.99930868539406 -107.558055378369 0.0371212790503061 163.019504894975 
! Gamma         0                0                0                0                
! Port Impedance         50               0                50               0                
5.0424                         0.0371209516871704 161.841397249298 0.999308712036924 -107.575113232651 0.999308711678246 -107.575113238764 0.0371195776034827 163.002560964604 
! Gamma         0                0                0                0                
! Port Impedance         50               0                50               0                
5.0432                         0.0371192714425224 161.824124083474 0.999308738539927 -107.592171106364 0.999308738177633 -107.592171112584 0.0371178733942034 162.985617177831 
! Gamma         0                0                0                0                
! Port Impedance         50               0                50               0                
5.044                          0.0371175883639957 161.806851056036 0.999308765257975 -107.609228993503 0.999308764892072 -107.609228999828 0.0371161664223764 162.968673534473 
! Gamma         0                0                0                0                
! Port Impedance         50               0                50               0                
5.0448                         0.0371159024515705 161.789578166796 0.999308792190919 -107.626286894068 0.999308791821412 -107.6262869005  0.0371144566879098 162.951730034346 
! Gamma         0                0                0                0                
! Port Impedance         50               0                50               0                
5.0456                         0.0371142137052274 161.772305415565 0.99930881933861 -107.643344808061 0.999308818965505 -107.643344814599 0.0371127441907119 162.934786677266 
! Gamma         0                0                0                0                
! Port Impedance         50               0                50               0                
5.0464                         0.037112522124947 161.755032802152 0.999308846700897 -107.660402735484 0.9993088463242  -107.660402742126 0.037111028930691 162.917843463052 
! Gamma         0                0                0                0                
! Port Impedance         50               0                50               0                
5.0472                         0.0371108277107098 161.73776032637  0.99930887427763 -107.677460676336 0.999308873897348 -107.677460683084 0.0371093109077555 162.900900391519 
! Gamma         0                0                0                0                
! Port Impedance         50               0                50               0                
5.048                          0.0371091304624967 161.720487988027 0.999308902068661 -107.69451863062 0.9993089016848  -107.694518637472 0.0371075901218138 162.883957462484 
! Gamma         0                0                0                0                
! Port Impedance         50               0                50               0                
5.0488                         0.0371074303802885 161.703215786936 0.99930893007384 -107.711576598336 0.999308929686404 -107.711576605293 0.0371058665727745 162.867014675766 
! Gamma         0                0                0                0                
! Port Impedance         50               0                50               0                
5.0496                         0.0371057274640659 161.685943722906 0.999308958293015 -107.728634579486 0.999308957902012 -107.728634586547 0.0371041402605461 162.850072031181 
! Gamma         0                0                0                0                
! Port Impedance         50               0                50               0                
5.0504                         0.0371040217138102 161.668671795748 0.999308986726039 -107.74569257407 0.999308986331474 -107.745692581235 0.0371024111850371 162.833129528548 
! Gamma         0                0                0                0                
! Port Impedance         50               0                50               0                
5.0512                         0.0371023131295023 161.651400005273 0.999309015372761 -107.76275058209 0.999309014974641 -107.762750589358 0.0371006793461564 162.816187167683 
! Gamma         0                0                0                0                
! Port Impedance         50               0                50               0                
5.052                          0.0371006017111234 161.634128351292 0.999309044233032 -107.779808603547 0.999309043831362 -107.779808610918 0.0370989447438126 162.799244948405 
! Gamma         0                0                0                0                
! Port Impedance         50               0                50               0                
5.0528                         0.0370988874586548 161.616856833614 0.999309073306701 -107.796866638441 0.999309072901487 -107.796866645915 0.0370972073779145 162.782302870531 
! Gamma         0                0                0                0                
! Port Impedance         50               0                50               0                
5.0536                         0.0370971703720778 161.599585452052 0.999309102593618 -107.813924686774 0.999309102184867 -107.813924694351 0.037095467248371 162.765360933881 
! Gamma         0                0                0                0                
! Port Impedance         50               0                50               0                
5.0544                         0.0370954504513738 161.582314206414 0.999309132093635 -107.830982748548 0.999309131681352 -107.830982756227 0.037093724355091 162.748419138271 
! Gamma         0                0                0                0                
! Port Impedance         50               0                50               0                
5.0552                         0.0370937276965244 161.565043096513 0.999309161806601 -107.848040823762 0.999309161390792 -107.848040831543 0.0370919786979834 162.731477483521 
! Gamma         0                0                0                0                
! Port Impedance         50               0                50               0                
5.056                          0.0370920021075112 161.547772122158 0.999309191732367 -107.865098912418 0.999309191313038 -107.8650989203  0.0370902302769574 162.71453596945  
! Gamma         0                0                0                0                
! Port Impedance         50               0                50               0                
5.0568                         0.0370902736843158 161.53050128316  0.999309221870782 -107.882157014517 0.999309221447939 -107.882157022501 0.0370884790919221 162.697594595875 
! Gamma         0                0                0                0                
! Port Impedance         50               0                50               0                
5.0576                         0.0370885424269201 161.513230579329 0.999309252221696 -107.899215130061 0.999309251795346 -107.899215138145 0.0370867251427865 162.680653362616 
! Gamma         0                0                0                0                
! Port Impedance         50               0                50               0                
5.0584                         0.0370868083353058 161.495960010477 0.99930928278496 -107.916273259049 0.999309282355109 -107.916273267234 0.03708496842946 162.663712269491 
! Gamma         0                0                0                0                
! Port Impedance         50               0                50               0                
5.0592                         0.0370850714094551 161.478689576414 0.999309313560424 -107.933331401483 0.999309313127077 -107.933331409769 0.0370832089518518 162.646771316321 
! Gamma         0                0                0                0                
! Port Impedance         50               0                50               0                
5.06                           0.0370833316493498 161.46141927695  0.999309344547938 -107.950389557365 0.999309344111101 -107.95038956575 0.0370814467098712 162.629830502924 
! Gamma         0                0                0                0                
! Port Impedance         50               0                50               0                
5.0608                         0.0370815890549721 161.444149111895 0.999309375747352 -107.967447726694 0.999309375307031 -107.967447735179 0.0370796817034277 162.612889829119 
! Gamma         0                0                0                0                
! Port Impedance         50               0                50               0                
5.0616                         0.0370798436263043 161.426879081061 0.999309407158516 -107.984505909472 0.999309406714718 -107.984505918057 0.0370779139324307 162.595949294727 
! Gamma         0                0                0                0                
! Port Impedance         50               0                50               0                
5.0624                         0.0370780953633285 161.409609184258 0.99930943878128 -108.001564105701 0.999309438334011 -108.001564114385 0.0370761433967898 162.579008899568 
! Gamma         0                0                0                0                
! Port Impedance         50               0                50               0                
5.0632                         0.0370763442660273 161.392339421297 0.999309470615495 -108.01862231538 0.99930947016476 -108.018622324163 0.0370743700964146 162.56206864346  
! Gamma         0                0                0                0                
! Port Impedance         50               0                50               0                
5.064                          0.0370745903343831 161.375069791988 0.99930950266101 -108.035680538511 0.999309502206815 -108.035680547393 0.0370725940312147 162.545128526224 
! Gamma         0                0                0                0                
! Port Impedance         50               0                50               0                
5.0648                         0.0370728335683785 161.357800296141 0.999309534917675 -108.052738775095 0.999309534460027 -108.052738784075 0.0370708152010998 162.52818854768  
! Gamma         0                0                0                0                
! Port Impedance         50               0                50               0                
5.0656                         0.037071073967996 161.340530933567 0.99930956738534 -108.069797025133 0.999309566924245 -108.069797034211 0.0370690336059797 162.511248707649 
! Gamma         0                0                0                0                
! Port Impedance         50               0                50               0                