! Touchstone file exported from HFSS 2024.1.0
!        File:           C:/Users/phobo/Documents/Ansoft/hfss_resonance_simulator.aedt
!        Generated:      09:34:57 AM May 29, 2025
!        Design:         Resonator_7252612e-6GHz_2_ports_v10
!        Project:        hfss_resonance_simulator
!        Setup:          Setup1
!        Solution:       Sweep
!
# GHz S MA R 50.000000
! Terminal data exported
! Port[1] = 1
! Port[2] = 2
3                              0.0325191933164749 -153.71799237972 0.999471111157022 -63.9985146692025 0.999471111185631 -63.9985146692025 0.0325191933164748 -154.279036958685 
! Gamma         0                0                0                0                
! Port Impedance         50               0                50               0                
3.0014                         0.0325287368457896 -153.747991123351 0.999470795269858 -64.0283662072686 0.999470795399215 -64.028366207264 0.0325288529901326 -154.309307990935 
! Gamma         0                0                0                0                
! Port Impedance         50               0                50               0                
3.0028                         0.0325382732778091 -153.777988849524 0.999470479521516 -64.0582177328865 0.99947047975155 -64.0582177328773 0.0325385055211862 -154.339578394621 
! Gamma         0                0                0                0                
! Port Impedance         50               0                50               0                
3.0042                         0.0325478026106833 -153.807985559281 0.99947016391228 -64.0880692460668 0.99947016424292 -64.0880692460531 0.0325481509074532 -154.369848170547 
! Gamma         0                0                0                0                
! Port Impedance         50               0                50               0                
3.0056                         0.0325573248425629 -153.837981253665 0.999469848442439 -64.1179207468203 0.999469848873614 -64.1179207468021 0.0325577891467521 -154.400117319514 
! Gamma         0                0                0                0                
! Port Impedance         50               0                50               0                
3.007                          0.0325668399716003 -153.867975933716 0.999469533112276 -64.1477722351578 0.999469533643915 -64.147772235135 0.0325674202369026 -154.430385842324 
! Gamma         0                0                0                0                
! Port Impedance         50               0                50               0                
3.0084                         0.0325763479959489 -153.897969600474 0.999469217922078 -64.1776237110899 0.99946921855411 -64.1776237110626 0.0325770441757256 -154.460653739778 
! Gamma         0                0                0                0                
! Port Impedance         50               0                50               0                
3.0098                         0.0325858489137635 -153.92796225498 0.999468902872132 -64.2074751746275 0.999468903604485 -64.2074751745957 0.0325866609610432 -154.490921012677 
! Gamma         0                0                0                0                
! Port Impedance         50               0                50               0                
3.0112                         0.0325953427232001 -153.957953898271 0.999468587962722 -64.2373266257814 0.999468588795325 -64.237326625745 0.0325962705906786 -154.52118766182 
! Gamma         0                0                0                0                
! Port Impedance         50               0                50               0                
3.0126                         0.0326048294224162 -153.987944531387 0.999468273194134 -64.2671780645623 0.999468274126915 -64.2671780645215 0.032605873062456 -154.551453688005 
! Gamma         0                0                0                0                
! Port Impedance         50               0                50               0                
3.014                          0.0326143090095704 -154.017934155365 0.999467958566653 -64.2970294909812 0.999467959599541 -64.2970294909359 0.0326154683742011 -154.581719092033 
! Gamma         0                0                0                0                
! Port Impedance         50               0                50               0                
3.0154                         0.0326237814828225 -154.047922771241 0.999467644080566 -64.3268809050488 0.999467645213488 -64.3268809049992 0.0326250565237404 -154.611983874701 
! Gamma         0                0                0                0                
! Port Impedance         50               0                50               0                
3.0168                         0.0326332468403337 -154.077910380051 0.999467329736156 -64.3567323067762 0.999467330969042 -64.356732306722 0.0326346375089018 -154.642248036807 
! Gamma         0                0                0                0                
! Port Impedance         50               0                50               0                
3.0182                         0.0326427050802666 -154.107896982831 0.999467015533709 -64.386583696174 0.999467016866487 -64.3865836961155 0.0326442113275141 -154.672511579147 
! Gamma         0                0                0                0                
! Port Impedance         50               0                50               0                
3.0196                         0.0326521562007849 -154.137882580616 0.999466701473509 -64.4164350732534 0.999466702906108 -64.4164350731905 0.0326537779774075 -154.702774502518 
! Gamma         0                0                0                0                
! Port Impedance         50               0                50               0                
3.021                          0.0326616002000536 -154.167867174439 0.999466387555843 -64.4462864380251 0.999466389088189 -64.4462864379578 0.0326633374564133 -154.733036807715 
! Gamma         0                0                0                0                
! Port Impedance         50               0                50               0                
3.0224                         0.0326710370762391 -154.197850765334 0.999466073780995 -64.4761377905002 0.999466075413017 -64.4761377904286 0.0326728897623638 -154.763298495534 
! Gamma         0                0                0                0                
! Port Impedance         50               0                50               0                
3.0238                         0.0326804668275089 -154.227833354333 0.999465760149249 -64.5059891306895 0.999465761880873 -64.5059891306136 0.0326824348930926 -154.793559566769 
! Gamma         0                0                0                0                
! Port Impedance         50               0                50               0                
3.0252                         0.0326898894520319 -154.257814942469 0.99946544666089 -64.5358404586043 0.999465448492045 -64.535840458524 0.0326919728464344 -154.823820022215 
! Gamma         0                0                0                0                
! Port Impedance         50               0                50               0                
3.0266                         0.0326993049479783 -154.287795530772 0.999465133316203 -64.5656917742553 0.999465135246816 -64.5656917741707 0.032701503620225 -154.854079862665 
! Gamma         0                0                0                0                
! Port Impedance         50               0                50               0                
3.028                          0.0327087133135195 -154.317775120272 0.999464820115471 -64.5955430776536 0.99946482214547 -64.5955430775648 0.0327110272123015 -154.884339088911 
! Gamma         0                0                0                0                
! Port Impedance         50               0                50               0                
3.0294                         0.0327181145468284 -154.347753712   0.999464507058978 -64.6253943688104 0.999464509188291 -64.6253943687173 0.032720543620502 -154.914597701747 
! Gamma         0                0                0                0                
! Port Impedance         50               0                50               0                
3.0308                         0.0327275086460788 -154.377731306985 0.99946419414701 -64.6552456477366 0.999464196375564 -64.6552456476392 0.0327300528426658 -154.944855701963 
! Gamma         0                0                0                0                
! Port Impedance         50               0                50               0                
3.0322                         0.032736895609446 -154.407707906256 0.999463881379851 -64.6850969144433 0.999463883707572 -64.6850969143417 0.0327395548766334 -154.975113090352 
! Gamma         0                0                0                0                
! Port Impedance         50               0                50               0                
3.0336                         0.0327462754351068 -154.437683510839 0.999463568757783 -64.7149481689417 0.999463571184599 -64.7149481688359 0.0327490497202463 -155.005369867704 
! Gamma         0                0                0                0                
! Port Impedance         50               0                50               0                
3.035                          0.0327556481212388 -154.467658121763 0.999463256281091 -64.7447994112428 0.999463258806928 -64.7447994111328 0.0327585373713474 -155.035626034809 
! Gamma         0                0                0                0                
! Port Impedance         50               0                50               0                
3.0364                         0.0327650136660213 -154.497631740054 0.999462943950058 -64.7746506413578 0.999462946574845 -64.7746506412437 0.0327680178277805 -155.065881592456 
! Gamma         0                0                0                0                
! Port Impedance         50               0                50               0                
3.0378                         0.0327743720676346 -154.527604366737 0.99946263176497 -64.8045018592979 0.999462634488631 -64.8045018591796 0.0327774910873907 -155.096136541435 
! Gamma         0                0                0                0                
! Port Impedance         50               0                50               0                
3.0392                         0.0327837233242605 -154.557576002837 0.999462319726106 -64.8343530650742 0.999462322548571 -64.8343530649517 0.0327869571480242 -155.126390882534 
! Gamma         0                0                0                0                
! Port Impedance         50               0                50               0                
3.0406                         0.0327930674340819 -154.58754664938 0.999462007833753 -64.8642042586979 0.999462010754947 -64.8642042585713 0.0327964160075283 -155.156644616541 
! Gamma         0                0                0                0                
! Port Impedance         50               0                50               0                
3.042                          0.0328024043952832 -154.617516307389 0.999461696088194 -64.8940554401803 0.999461699108042 -64.8940554400495 0.0328058676637516 -155.186897744243 
! Gamma         0                0                0                0                
! Port Impedance         50               0                50               0                
3.0434                         0.0328117342060498 -154.647484977887 0.99946138448971 -64.9239066095325 0.999461387608141 -64.9239066093977 0.0328153121145438 -155.217150266428 
! Gamma         0                0                0                0                
! Port Impedance         50               0                50               0                
3.0448                         0.0328210568645686 -154.677452661896 0.999461073038585 -64.9537577667658 0.999461076255525 -64.9537577666269 0.0328247493577555 -155.24740218388 
! Gamma         0                0                0                0                
! Port Impedance         50               0                50               0                
3.0462                         0.0328303723690277 -154.707419360438 0.999460761735104 -64.9836089118916 0.999460765050478 -64.9836089117486 0.0328341793912388 -155.277653497387 
! Gamma         0                0                0                0                
! Port Impedance         50               0                50               0                
3.0476                         0.0328396807176165 -154.737385074536 0.999460450579547 -65.013460044921 0.999460453993281 -65.013460044774 0.0328436022128468 -155.307904207733 
! Gamma         0                0                0                0                
! Port Impedance         50               0                50               0                
3.049                          0.0328489819085257 -154.767349805208 0.999460139572197 -65.0433111658654 0.999460143084218 -65.0433111657144 0.0328530178204337 -155.338154315703 
! Gamma         0                0                0                0                
! Port Impedance         50               0                50               0                
3.0504                         0.0328582759399472 -154.797313553475 0.999459828713337 -65.0731622747361 0.999459832323571 -65.0731622745811 0.032862426211855 -155.36840382208 
! Gamma         0                0                0                0                
! Port Impedance         50               0                50               0                
3.0518                         0.0328675628100743 -154.827276320357 0.999459518003252 -65.1030133715446 0.999459521711624 -65.1030133713856 0.0328718273849671 -155.398652727649 
! Gamma         0                0                0                0                
! Port Impedance         50               0                50               0                
3.0532                         0.0328768425171015 -154.857238106872 0.99945920744222 -65.132864456302 0.999459211248657 -65.132864456139 0.0328812213376279 -155.428901033192 
! Gamma         0                0                0                0                
! Port Impedance         50               0                50               0                
3.0546                         0.0328861150592245 -154.887198914037 0.999458897030526 -65.1627155290198 0.999458900934953 -65.1627155288529 0.0328906080676961 -155.459148739492 
! Gamma         0                0                0                0                
! Port Impedance         50               0                50               0                
3.056                          0.0328953804346406 -154.917158742871 0.999458586768452 -65.1925665897095 0.999458590770794 -65.1925665895387 0.0328999875730318 -155.489395847331 
! Gamma         0                0                0                0                
! Port Impedance         50               0                50               0                
3.0574                         0.032904638641548 -154.94711759439 0.99945827665628 -65.2224176383824 0.999458280756462 -65.2224176382076 0.032909359851496 -155.519642357489 
! Gamma         0                0                0                0                
! Port Impedance         50               0                50               0                
3.0588                         0.0329138896781464 -154.977075469609 0.99945796669429 -65.25226867505  0.99945797089224 -65.2522686748713 0.0329187249009512 -155.549888270749 
! Gamma         0                0                0                0                
! Port Impedance         50               0                50               0                
3.0602                         0.0329231335426368 -155.007032369546 0.999457656882765 -65.2821196997237 0.999457661178407 -65.2821196995412 0.0329280827192607 -155.580133587889 
! Gamma         0                0                0                0                
! Port Impedance         50               0                50               0                
3.0616                         0.0329323702332213 -155.036988295213 0.999457347221987 -65.3119707124151 0.999457351615246 -65.3119707122287 0.0329374333042892 -155.610378309691 
! Gamma         0                0                0                0                
! Port Impedance         50               0                50               0                
3.063                          0.0329415997481035 -155.066943247627 0.999457037712238 -65.3418217131355 0.999457042203039 -65.3418217129453 0.0329467766539024 -155.640622436932 
! Gamma         0                0                0                0                
! Port Impedance         50               0                50               0                
3.0644                         0.0329508220854882 -155.096897227799 0.999456728353798 -65.3716727018966 0.999456732942067 -65.3716727017026 0.0329561127659672 -155.670865970392 
! Gamma         0                0                0                0                
! Port Impedance         50               0                50               0                
3.0658                         0.0329600372435813 -155.126850236743 0.99945641914695 -65.4015236787099 0.999456423832611 -65.401523678512 0.0329654416383516 -155.701108910849 
! Gamma         0                0                0                0                
! Port Impedance         50               0                50               0                
3.0672                         0.0329692452205903 -155.156802275472 0.999456110091975 -65.4313746435868 0.999456114874952 -65.4313746433852 0.0329747632689249 -155.731351259081 
! Gamma         0                0                0                0                
! Port Impedance         50               0                50               0                
3.0686                         0.0329784460147238 -155.186753344997 0.999455801189151 -65.4612255965391 0.999455806069371 -65.4612255963337 0.0329840776555573 -155.761593015865 
! Gamma         0                0                0                0                
! Port Impedance         50               0                50               0                
3.07                           0.0329876396241917 -155.21670344633 0.999455492438763 -65.4910765375783 0.99945549741615 -65.4910765373691 0.0329933847961204 -155.791834181976 
! Gamma         0                0                0                0                
! Port Impedance         50               0                50               0                
3.0714                         0.0329968260472052 -155.24665258048 0.99945518384109 -65.5209274667159 0.999455188915567 -65.520927466503 0.0330026846884869 -155.822074758192 
! Gamma         0                0                0                0                
! Port Impedance         50               0                50               0                
3.0728                         0.0330060052819767 -155.276600748458 0.999454875396413 -65.5507783839637 0.999454880567906 -65.5507783837471 0.0330119773305304 -155.852314745288 
! Gamma         0                0                0                0                
! Port Impedance         50               0                50               0                
3.0742                         0.0330151773267202 -155.306547951274 0.999454567105012 -65.5806292893332 0.999454572373445 -65.5806292891129 0.033021262720126 -155.882554144038 
! Gamma         0                0                0                0                
! Port Impedance         50               0                50               0                
3.0756                         0.0330243421796504 -155.336494189935 0.999454258967168 -65.6104801828362 0.999454264332466 -65.6104801826122 0.0330305408551498 -155.912792955217 
! Gamma         0                0                0                0                
! Port Impedance         50               0                50               0                
3.077                          0.033033499838984 -155.36643946545 0.999453950983163 -65.6403310644843 0.999453956445249 -65.6403310642567 0.0330398117334788 -155.9430311796  
! Gamma         0                0                0                0                
! Port Impedance         50               0                50               0                
3.0784                         0.0330426503029383 -155.396383778826 0.999453643153275 -65.6701819342892 0.999453648712074 -65.670181934058 0.0330490753529917 -155.973268817959 
! Gamma         0                0                0                0                
! Port Impedance         50               0                50               0                
3.0798                         0.0330517935697323 -155.426327131071 0.999453335477785 -65.7000327922627 0.999453341133221 -65.7000327920279 0.0330583317115678 -156.003505871068 
! Gamma         0                0                0                0                
! Port Impedance         50               0                50               0                
3.0812                         0.0330609296375863 -155.456269523191 0.999453027956973 -65.7298836384165 0.99945303370897 -65.7298836381781 0.0330675808070879 -156.033742339699 
! Gamma         0                0                0                0                
! Port Impedance         50               0                50               0                
3.0826                         0.0330700585047217 -155.486210956191 0.99945272059112 -65.7597344727624 0.9994527264396  -65.7597344725203 0.0330768226374338 -156.063978224623 
! Gamma         0                0                0                0                
! Port Impedance         50               0                50               0                
3.084                          0.0330791801693611 -155.516151431077 0.999452413380502 -65.7895852953121 0.999452419325391 -65.7895852950665 0.0330860572004885 -156.094213526613 
! Gamma         0                0                0                0                
! Port Impedance         50               0                50               0                
3.0854                         0.0330882946297287 -155.546090948853 0.999452106325404 -65.8194361060774 0.999452112366625 -65.8194361058283 0.033095284494136 -156.124448246438 
! Gamma         0                0                0                0                
! Port Impedance         50               0                50               0                
3.0868                         0.0330974018840498 -155.576029510523 0.999451799426102 -65.8492869050702 0.999451805563579 -65.8492869048175 0.0331045045162617 -156.15468238487 
! Gamma         0                0                0                0                
! Port Impedance         50               0                50               0                
3.0882                         0.0331065019305509 -155.60596711709 0.999451492682876 -65.8791376923023 0.999451498916532 -65.8791376920461 0.033113717264752 -156.184915942678 
! Gamma         0                0                0                0                
! Port Impedance         50               0                50               0                
3.0896                         0.03311559476746 -155.635903769559 0.999451186096006 -65.9089884677855 0.999451192425765 -65.9089884675259 0.0331229227374945 -156.215148920631 
! Gamma         0                0                0                0                
! Port Impedance         50               0                50               0                
3.091                          0.0331246803930062 -155.665839468929 0.999450879665772 -65.9388392315318 0.999450886091556 -65.9388392312687 0.0331321209323778 -156.245381319498 
! Gamma         0                0                0                0                
! Port Impedance         50               0                50               0                
3.0924                         0.0331337588054199 -155.695774216205 0.999450573392452 -65.968689983553 0.999450579914184 -65.9686899832865 0.0331413118472919 -156.275613140048 
! Gamma         0                0                0                0                
! Port Impedance         50               0                50               0                
3.0938                         0.033142830002933 -155.725708012385 0.999450267276324 -65.998540723861 0.999450273893928 -65.9985407235911 0.0331504954801278 -156.305844383048 
! Gamma         0                0                0                0                
! Port Impedance         50               0                50               0                
3.0952                         0.0331518939837783 -155.755640858472 0.999449961317668 -66.0283914524678 0.999449968031067 -66.0283914521945 0.0331596718287775 -156.336075049266 
! Gamma         0                0                0                0                
! Port Impedance         50               0                50               0                
3.0966                         0.0331609507461903 -155.785572755465 0.999449655516763 -66.0582421693854 0.99944966232588 -66.0582421691086 0.0331688408911345 -156.366305139468 
! Gamma         0                0                0                0                
! Port Impedance         50               0                50               0                
3.098                          0.0331700002884045 -155.815503704363 0.999449349873888 -66.0880928746256 0.999449356778646 -66.0880928743455 0.0331780026650932 -156.39653465442 
! Gamma         0                0                0                0                
! Port Impedance         50               0                50               0                
3.0994                         0.0331790426086578 -155.845433706166 0.999449044389319 -66.1179435682005 0.999449051389641 -66.117943567917 0.0331871571485492 -156.426763594889 
! Gamma         0                0                0                0                
! Port Impedance         50               0                50               0                
3.1008                         0.0331880777051883 -155.875362761871 0.999448739063337 -66.1477942501221 0.999448746159145 -66.1477942498353 0.0331963043393992 -156.456991961639 
! Gamma         0                0                0                0                
! Port Impedance         50               0                50               0                
3.1022                         0.0331971055762355 -155.905290872477 0.99944843389622 -66.1776449204024 0.999448441087436 -66.1776449201123 0.0332054442355411 -156.487219755435 
! Gamma         0                0                0                0                
! Port Impedance         50               0                50               0                
3.1036                         0.0332061262200402 -155.93521803898 0.999448128888245 -66.2074955790535 0.999448136174792 -66.2074955787601 0.033214576834874 -156.517446977042 
! Gamma         0                0                0                0                
! Port Impedance         50               0                50               0                
3.105                          0.0332151396348442 -155.965144262377 0.999447824039691 -66.2373462260874 0.999447831421491 -66.2373462257907 0.0332237021352981 -156.547673627224 
! Gamma         0                0                0                0                
! Port Impedance         50               0                50               0                
3.1064                         0.033224145818891 -155.995069543665 0.999447519350834 -66.2671968615162 0.999447526827811 -66.2671968612163 0.0332328201347147 -156.577899706742 
! Gamma         0                0                0                0                
! Port Impedance         50               0                50               0                
3.1078                         0.0332331447704252 -156.024993883839 0.999447214821953 -66.297047485352 0.999447222394029 -66.2970474850489 0.0332419308310264 -156.608125216362 
! Gamma         0                0                0                0                
! Port Impedance         50               0                50               0                
3.1092                         0.0332421364876925 -156.054917283893 0.999446910453327 -66.326898097607 0.999446918120423 -66.3268980973007 0.0332510342221367 -156.638350156843 
! Gamma         0                0                0                0                
! Port Impedance         50               0                50               0                
3.1106                         0.0332511209689402 -156.084839744823 0.999446606245232 -66.3567486982932 0.99944661400727 -66.3567486979837 0.0332601303059504 -156.668574528949 
! Gamma         0                0                0                0                
! Port Impedance         50               0                50               0                
3.112                          0.0332600982124167 -156.114761267622 0.999446302197945 -66.3865992874229 0.999446310054847 -66.3865992871102 0.0332692190803735 -156.698798333441 
! Gamma         0                0                0                0                
! Port Impedance         50               0                50               0                
3.1134                         0.0332690682163716 -156.144681853284 0.999445998311745 -66.4164498650082 0.999446006263434 -66.4164498646924 0.033278300543313 -156.729021571078 
! Gamma         0                0                0                0                
! Port Impedance         50               0                50               0                
3.1148                         0.0332780309790562 -156.174601502801 0.999445694586907 -66.4463004310614 0.999445702633304 -66.4463004307424 0.0332873746926772 -156.759244242623 
! Gamma         0                0                0                0                
! Port Impedance         50               0                50               0                