! Touchstone file exported from HFSS 2024.1.0
!        File:           C:/Users/alex_0000/Desktop/hfss_resonance_simulator (1).aedt
!        Generated:      06:27:55 PM Jun  4, 2025
!        Design:         hfssO1XZ3E2
!        Project:        hfss_resonance_simulator (1)
!        Setup:          Setup1
!        Solution:       Sweep
!
! Created with skrf (http://scikit-rf.org).
# GHz S RI R 50.0 
! Port[1] = 1
! Port[2] = 2
!freq ReS11 ImS11 ReS21 ImS21 ReS12 ImS12 ReS22 ImS22
-0.46689999999999987 -0.004439367501391157 0.007908279408365623 -0.8208869685488442 -0.5710186827063326 -0.8208869685488442 -0.5710186827063326 -0.005870383716998494 0.0069128476063335526
-0.46682999999999986 -0.004438897913251232 0.0079080495794583 -0.8209018876195138 -0.5709972415645381 -0.8209018876195129 -0.5709972415645376 -0.005869970341871417 0.006912634145617251
-0.46675999999999984 -0.004438428333273241 0.007907819719282897 -0.8209168061339902 -0.5709758000272871 -0.8209168061339894 -0.5709758000272865 -0.0058695569729167825 0.006912420657370641
-0.4666899999999998 -0.0044379587614585695 0.007907589827837808 -0.8209317240922528 -0.570954358094609 -0.820931724092252 -0.5709543580946085 -0.005869143610134018 0.006912207141593486
-0.4666199999999998 -0.004437489197809008 0.007907359905121182 -0.8209466414943015 -0.5709329157665041 -0.8209466414943007 -0.5709329157665035 -0.005868730253522846 0.006911993598285126
-0.4665499999999998 -0.004437019642326401 0.007907129951131252 -0.8209615583401263 -0.5709114730429862 -0.8209615583401255 -0.5709114730429856 -0.005868316903082926 0.006911780027444874
-0.4664799999999998 -0.004436550095012131 0.007906899965866413 -0.8209764746297052 -0.5708900299240842 -0.8209764746297045 -0.5708900299240837 -0.005867903558813891 0.006911566429072213
-0.46640999999999977 -0.004436080555868175 0.007906669949324817 -0.8209913903630488 -0.5708685864097838 -0.820991390363048 -0.5708685864097832 -0.005867490220715391 0.006911352803166421
-0.46633999999999975 -0.004435611024896019 0.007906439901504697 -0.8210063055401254 -0.5708471425001275 -0.8210063055401247 -0.5708471425001269 -0.0058670768887870775 0.006911139149727032
-0.46626999999999974 -0.004435141502097389 0.007906209822404423 -0.8210212201609562 -0.5708256981950877 -0.8210212201609554 -0.5708256981950871 -0.005866663563028601 0.0069109254687533045
-0.4661999999999997 -0.0044346719874737974 0.007905979712022271 -0.8210361342255085 -0.5708042534947069 -0.8210361342255068 -0.5708042534947058 -0.0058662502434395775 0.006910711760244744
-0.4661299999999997 -0.004434202481027305 0.007905749570356238 -0.8210510477337718 -0.5707828083989989 -0.821051047733771 -0.5707828083989983 -0.00586583693001955 0.006910498024200711
-0.4660599999999997 -0.004433732982759191 0.007905519397404826 -0.8210659606857568 -0.5707613629079495 -0.821065960685756 -0.570761362907949 -0.005865423622768249 0.0069102842606206145
-0.4659899999999997 -0.004433263492671284 0.007905289193166253 -0.8210808730814421 -0.5707399170215884 -0.8210808730814412 -0.5707399170215879 -0.00586501032168527 0.006910070469503882
-0.46591999999999967 -0.004432794010765357 0.007905058957638626 -0.821095784920828 -0.5707184707399142 -0.8210957849208271 -0.5707184707399137 -0.005864597026770257 0.006909856650849795
-0.46584999999999965 -0.00443232453704298 0.007904828690820334 -0.8211106962038924 -0.5706970240629576 -0.8211106962038908 -0.5706970240629565 -0.005864183738022851 0.006909642804657865
-0.46577999999999964 -0.004431855071505781 0.007904598392709548 -0.8211256069306258 -0.57067557699073 -0.8211256069306241 -0.5706755769907288 -0.00586377045544258 0.0069094289309274606
-0.4657099999999996 -0.00443138561415558 0.007904368063304464 -0.8211405171010361 -0.5706541295232189 -0.8211405171010352 -0.5706541295232184 -0.005863357179029251 0.006909215029657802
-0.4656399999999996 -0.004430916164993924 0.00790413770260344 -0.8211554267151047 -0.5706326816604533 -0.8211554267151039 -0.5706326816604528 -0.005862943908782352 0.006909001100848469
-0.4655699999999996 -0.0044304467240226025 0.007903907310604596 -0.8211703357728192 -0.5706112334024468 -0.8211703357728183 -0.5706112334024462 -0.00586253064470159 0.0069087871444988005
-0.4654999999999996 -0.004429977291243152 0.00790367688730627 -0.8211852442741802 -0.5705897847491993 -0.8211852442741794 -0.5705897847491987 -0.005862117386786472 0.006908573160608147
-0.46542999999999957 -0.004429507866657228 0.007903446432706678 -0.8212001522191669 -0.5705683357007396 -0.8212001522191652 -0.5705683357007385 -0.005861704135036726 0.00690835914917588
-0.4653599999999995 -0.004429038450266775 0.0079032159468039 -0.8212150596077873 -0.5705468862570537 -0.8212150596077865 -0.5705468862570532 -0.005861290889451814 0.006908145110201525
-0.46528999999999954 -0.0044285690420732 0.007902985429596375 -0.8212299664400134 -0.5705254364181847 -0.8212299664400118 -0.5705254364181835 -0.005860877650031511 0.006907931043684292
-0.4652199999999995 -0.004428099642078275 0.007902754881082188 -0.8212448727158516 -0.5705039861841169 -0.8212448727158507 -0.5705039861841164 -0.005860464416775389 0.006907716949623588
-0.4651499999999995 -0.0044276302502836845 0.00790252430125962 -0.8212597784352835 -0.5704825355548808 -0.8212597784352826 -0.5704825355548802 -0.005860051189683049 0.006907502828018873
-0.46507999999999955 -0.004427160866691095 0.0079022936901269 -0.8212746835982978 -0.5704610845304903 -0.8212746835982961 -0.5704610845304892 -0.005859637968754 0.006907288678869516
-0.4650099999999995 -0.004426691491302143 0.007902063047682206 -0.8212895882049033 -0.5704396331109299 -0.8212895882049025 -0.5704396331109294 -0.005859224753987952 0.0069070745021748495
-0.46493999999999946 -0.004426222124118515 0.007901832373923806 -0.821304492255071 -0.570418181296244 -0.8213044922550693 -0.5704181812962429 -0.005858811545384595 0.006906860297934201
-0.46486999999999945 -0.004425752765141859 0.007901601668849916 -0.8213193957488073 -0.5703967290864169 -0.8213193957488056 -0.5703967290864158 -0.0058583983429433585 0.006906646066147078
-0.46479999999999944 -0.004425283414374 0.007901370932458712 -0.8213342986860946 -0.5703752764814786 -0.821334298686093 -0.5703752764814775 -0.005857985146663807 0.0069064318068128875
-0.4647299999999994 -0.004424814071816429 0.007901140164748447 -0.8213492010669308 -0.5703538234814292 -0.8213492010669292 -0.570353823481428 -0.005857571956545833 0.006906217519930719
-0.4646599999999994 -0.004424344737470956 0.007900909365717293 -0.8213641028912954 -0.5703323700862954 -0.8213641028912938 -0.5703323700862943 -0.005857158772588783 0.0069060032055002175
-0.4645899999999994 -0.004423875411339231 0.007900678535363434 -0.8213790041591978 -0.5703109162960646 -0.8213790041591971 -0.570310916296064 -0.005856745594792206 0.006905788863520776
-0.4645199999999994 -0.004423406093422783 0.007900447673685189 -0.8213939048706076 -0.5702894621107798 -0.8213939048706068 -0.5702894621107792 -0.005856332423156007 0.006905574493991488
-0.46444999999999936 -0.004422936783723408 0.007900216780680697 -0.8214088050255349 -0.5702680075304268 -0.8214088050255333 -0.5702680075304257 -0.0058559192576794 0.0069053600969120905
-0.46437999999999935 -0.004422467482242909 0.0078999858563481 -0.8214237046239571 -0.5702465525550323 -0.8214237046239562 -0.5702465525550318 -0.005855506098362281 0.006905145672281663
-0.46430999999999933 -0.004421998188982651 0.007899754900685747 -0.8214386036658753 -0.5702250971845987 -0.8214386036658736 -0.5702250971845976 -0.005855092945204044 0.006904931220099661
-0.4642399999999993 -0.00442152890394458 0.00789952391369172 -0.821453502151278 -0.5702036414191384 -0.8214535021512772 -0.5702036414191378 -0.00585467979820442 0.006904716740365454
-0.4641699999999993 -0.0044210596271303465 0.00789929289536421 -0.8214684000801553 -0.570182185258668 -0.8214684000801536 -0.5701821852586669 -0.005854266657362831 0.00690450223307856
-0.4640999999999993 -0.004420590358541456 0.0078990618457015 -0.8214832974524956 -0.5701607287032 -0.8214832974524939 -0.5701607287031988 -0.005853853522679011 0.006904287698238078
-0.4640299999999993 -0.004420121098179716 0.00789883076470171 -0.8214981942682988 -0.5701392717527347 -0.8214981942682981 -0.5701392717527342 -0.005853440394152411 0.006904073135843544
-0.46395999999999926 -0.004419651846046769 0.00789859965236306 -0.8215130905275454 -0.5701178144073018 -0.8215130905275437 -0.5701178144073007 -0.005853027271782703 0.006903858545894268
-0.46389000000000014 -0.004419182602144278 0.007898368508683758 -0.821527986230233 -0.5700963566668997 -0.8215279862302314 -0.5700963566668985 -0.005852614155569468 0.0069036439283896855
-0.4638200000000001 -0.004418713366473893 0.007898137333661986 -0.8215428813763613 -0.5700748985315297 -0.8215428813763597 -0.5700748985315286 -0.00585220104551232 0.006903429283329024
-0.4637500000000001 -0.004418244139037389 0.007897906127295868 -0.8215577759659 -0.5700534400012331 -0.8215577759658991 -0.5700534400012326 -0.005851787941610651 0.006903214610711746
-0.4636800000000001 -0.004417774919836309 0.007897674889583702 -0.821572669998859 -0.5700319810759976 -0.8215726699988574 -0.5700319810759965 -0.005851374843864197 0.006902999910537234
-0.4636100000000001 -0.004417305708872423 0.007897443620523598 -0.8215875634752171 -0.5700105217558517 -0.8215875634752154 -0.5700105217558505 -0.005850961752272567 0.006902785182804705
-0.46354000000000006 -0.004416836506147379 0.007897212320113735 -0.8216024563949738 -0.5699890620407945 -0.8216024563949722 -0.5699890620407934 -0.0058505486668351874 0.006902570427513652
-0.46347000000000005 -0.0044163673116628275 0.007896980988352306 -0.8216173487581175 -0.5699676019308402 -0.8216173487581159 -0.5699676019308391 -0.0058501355875516985 0.006902355644663354
-0.46340000000000003 -0.004415898125420547 0.007896749625237417 -0.8216322405646497 -0.5699461414259894 -0.8216322405646481 -0.5699461414259883 -0.005849722514421673 0.006902140834253217
-0.46333 -0.004415428947422071 0.007896518230767367 -0.8216471318145386 -0.5699246805262851 -0.821647131814537 -0.5699246805262839 -0.005849309447444611 0.006901925996282617
-0.46326 -0.004414959777669181 0.007896286804940273 -0.8216620225077925 -0.5699032192317125 -0.8216620225077909 -0.5699032192317113 -0.005848896386620052 0.006901711130750907
-0.46319 -0.0044144906161635074 0.007896055347754281 -0.8216769126444027 -0.5698817575422866 -0.821676912644401 -0.5698817575422855 -0.005848483331947793 0.006901496237657309
-0.46312 -0.004414021462906712 0.0078958238592076 -0.8216918022243581 -0.569860295458021 -0.8216918022243564 -0.5698602954580199 -0.005848070283427113 0.006901281317001389
-0.46304999999999996 -0.004413552317900428 0.007895592339298407 -0.8217066912476466 -0.5698388329789302 -0.821706691247645 -0.5698388329789291 -0.005847657241057767 0.006901066368782299
-0.46297999999999995 -0.004413083181146437 0.007895360788024787 -0.8217215797142593 -0.5698173701050296 -0.8217215797142576 -0.5698173701050285 -0.005847244204839102 0.006900851392999444
-0.46290999999999993 -0.004412614052646396 0.007895129205384953 -0.8217364676241948 -0.5697959068363183 -0.8217364676241923 -0.5697959068363166 -0.005846831174770899 0.00690063638965226
-0.4628399999999999 -0.004412144932401819 0.00789489759137717 -0.8217513549774325 -0.5697744431728238 -0.8217513549774309 -0.5697744431728227 -0.005846418150852591 0.006900421358739999
-0.4627699999999999 -0.0044116758204146 0.007894665945999406 -0.8217662417739822 -0.5697529791145338 -0.8217662417739805 -0.5697529791145327 -0.005846005133083714 0.006900206300262053
-0.4626999999999999 -0.004411206716686263 0.007894434269249968 -0.821781128013813 -0.5697315146614905 -0.8217811280138105 -0.5697315146614889 -0.005845592121463826 0.006899991214217817
-0.4626299999999999 -0.004410737621218714 0.007894202561126839 -0.8217960136969343 -0.5697100498136795 -0.8217960136969319 -0.5697100498136778 -0.005845179115992491 0.006899776100606475
-0.46255999999999986 -0.004410268534013323 0.007893970821628347 -0.8218108988233254 -0.5696885845711297 -0.8218108988233228 -0.569688584571128 -0.005844766116669282 0.0068995609594274645
-0.46248999999999985 -0.0044097994550718715 0.00789373905075261 -0.8218257833929854 -0.5696671189338407 -0.821825783392983 -0.569667118933839 -0.0058443531234936485 0.006899345790680286
-0.46241999999999983 -0.004409330384396133 0.007893507248497696 -0.8218406674058942 -0.5696456529018414 -0.8218406674058917 -0.5696456529018398 -0.005843940136465245 0.006899130594363998
-0.4623499999999998 -0.004408861321987613 0.007893275414861858 -0.8218555508620609 -0.5696241864751175 -0.8218555508620584 -0.5696241864751158 -0.005843527155583654 0.006898915370478023
-0.4622799999999998 -0.004408392267848221 0.007893043549843102 -0.8218704337614646 -0.5696027196536976 -0.8218704337614622 -0.5696027196536959 -0.005843114180848131 0.006898700119021901
-0.4622099999999998 -0.004407923221979332 0.007892811653439755 -0.8218853161040953 -0.5695812524375959 -0.8218853161040937 -0.5695812524375948 -0.005842701212258549 0.006898484839994697
-0.4621399999999998 -0.004407454184382978 0.00789257972564973 -0.8219001978899525 -0.5695597848268134 -0.8219001978899501 -0.5695597848268117 -0.005842288249814286 0.006898269533395828
-0.46206999999999976 -0.004406985155060546 0.007892347766471372 -0.8219150791190247 -0.5695383168213626 -0.8219150791190223 -0.5695383168213609 -0.005841875293514758 0.006898054199224797
-0.46199999999999974 -0.004406516134013785 0.007892115775902733 -0.8219299597912925 -0.5695168484212738 -0.8219299597912899 -0.569516848421272 -0.005841462343359736 0.006897838837480772
-0.46192999999999973 -0.004406047121244357 0.00789188375394199 -0.8219448399067639 -0.5694953796265322 -0.8219448399067615 -0.5694953796265305 -0.005841049399348541 0.00689762344816311
-0.4618599999999997 -0.0044055781167540034 0.007891651700587185 -0.8219597194654283 -0.5694739104371512 -0.8219597194654267 -0.5694739104371501 -0.005840636461480838 0.006897408031271136
-0.4617899999999997 -0.004405109120544373 0.007891419615836498 -0.8219745984672572 -0.5694524408531759 -0.8219745984672547 -0.5694524408531741 -0.00584022352975604 0.006897192586804301
-0.4617199999999997 -0.004404640132617122 0.007891187499688116 -0.8219894769122675 -0.5694309708745754 -0.8219894769122651 -0.5694309708745736 -0.005839810604173734 0.006896977114761818
-0.4616499999999996 -0.004404171152973981 0.007890955352140043 -0.8220043548004394 -0.5694095005013796 -0.8220043548004369 -0.5694095005013778 -0.005839397684733432 0.006896761615143036
-0.46157999999999966 -0.004403702181616475 0.007890723173190542 -0.8220192321317633 -0.5693880297336027 -0.8220192321317609 -0.569388029733601 -0.005838984771434738 0.00689654608794718
-0.46150999999999964 -0.004403233218546513 0.007890490962837627 -0.8220341089062272 -0.5693665585712592 -0.8220341089062247 -0.5693665585712575 -0.005838571864276988 0.006896330533173874
-0.46143999999999963 -0.004402764263765567 0.00789025872107947 -0.822048985123821 -0.569345087014363 -0.8220489851238185 -0.5693450870143614 -0.0058381589632598456 0.006896114950822173
-0.46136999999999967 -0.004402295317275414 0.00789002644791416 -0.8220638607845541 -0.5693236150628995 -0.8220638607845516 -0.5693236150628977 -0.005837746068382809 0.006895899340891409
-0.4612999999999996 -0.004401826379077694 0.007889794143339835 -0.8220787358883958 -0.5693021427169118 -0.8220787358883941 -0.5693021427169107 -0.0058373331796453 0.006895683703381071
-0.4612299999999996 -0.004401357449174167 0.007889561807354577 -0.8220936104353556 -0.5692806699763872 -0.8220936104353531 -0.5692806699763855 -0.005836920297046912 0.006895468038290374
-0.46115999999999957 -0.004400888527566313 0.007889329439956566 -0.822108484425413 -0.5692591968413526 -0.8221084844254104 -0.5692591968413508 -0.0058365074205870135 0.006895252345618738
-0.46108999999999956 -0.004400419614255923 0.007889097041143897 -0.822123357858557 -0.5692377233118224 -0.8221233578585545 -0.5692377233118208 -0.005836094550265344 0.006895036625365299
-0.46101999999999954 -0.00439995070924474 0.007888864610914596 -0.822138230734797 -0.5692162493877827 -0.8221382307347944 -0.5692162493877809 -0.005835681686081169 0.006894820877529605
-0.4609499999999995 -0.004399481812534269 0.007888632149266906 -0.8221531030541027 -0.5691947750692774 -0.8221531030541003 -0.5691947750692756 -0.0058352688280341805 0.006894605102110744
-0.4608799999999995 -0.004399012924126408 0.007888399656198789 -0.822167974816473 -0.5691733003563043 -0.8221679748164704 -0.5691733003563025 -0.00583485597612383 0.006894389299108233
-0.4608099999999995 -0.004398544044022638 0.007888167131708455 -0.8221828460218986 -0.5691518252488803 -0.8221828460218953 -0.569151825248878 -0.005834443130349522 0.006894173468521293
-0.4607399999999995 -0.004398075172224718 0.007887934575793927 -0.822197716670387 -0.5691303497469887 -0.8221977166703845 -0.5691303497469871 -0.005834030290710777 0.006893957610349299
-0.46066999999999947 -0.004397606308734419 0.007887701988453281 -0.8222125867618989 -0.5691088738506892 -0.8222125867618956 -0.5691088738506869 -0.005833617457207181 0.0068937417245914425
-0.46059999999999945 -0.004397137453553106 0.007887469369684819 -0.8222274562964523 -0.5690873975599507 -0.8222274562964499 -0.5690873975599491 -0.005833204629838265 0.006893525811247101
-0.46052999999999944 -0.004396668606682795 0.007887236719486403 -0.822242325274029 -0.5690659208748041 -0.8222423252740265 -0.5690659208748023 -0.005832791808603354 0.006893309870315647
-0.4604599999999994 -0.004396199768124959 0.007887004037856206 -0.8222571936946158 -0.569044443795262 -0.8222571936946134 -0.5690444437952602 -0.005832378993501915 0.006893093901796381
-0.4603899999999994 -0.004395730937881385 0.00788677132479232 -0.8222720615582139 -0.569022966321325 -0.8222720615582113 -0.5690229663213233 -0.005831966184533707 0.006892877905688462
-0.4603199999999994 -0.004395262115953677 0.007886538580292844 -0.8222869288648013 -0.5690014884530228 -0.8222869288647988 -0.569001488453021 -0.00583155338169786 0.00689266188199152
-0.4602499999999994 -0.004394793302343603 0.007886305804355814 -0.8223017956143789 -0.5689800101903539 -0.8223017956143757 -0.5689800101903516 -0.005831140584994157 0.006892445830704498
-0.46017999999999937 -0.004394324497052635 0.007886072996979415 -0.822316661806944 -0.568958531533319 -0.8223166618069414 -0.5689585315333172 -0.005830727794421983 0.006892229751826846
-0.46010999999999935 -0.004393855700082678 0.00788584015816162 -0.8223315274424688 -0.5689370524819611 -0.8223315274424663 -0.5689370524819594 -0.005830315009980723 0.006892013645358001
-0.46003999999999934 -0.004393386911435199 0.007885607287900602 -0.8223463925209598 -0.5689155730362656 -0.8223463925209573 -0.5689155730362639 -0.005829902231669917 0.0068917975112971095
-0.4599699999999993 -0.004392918131112108 0.007885374386194332 -0.8223612570424078 -0.5688940931962476 -0.8223612570424054 -0.568894093196246 -0.005829489459489073 0.006891581349643522
-0.4598999999999993 -0.004392449359114876 0.007885141453040983 -0.8223761210068022 -0.5688726129619203 -0.8223761210067998 -0.5688726129619186 -0.005829076693437671 0.006891365160396553
-0.4598299999999993 -0.004391980595445254 0.007884908488438584 -0.8223909844141328 -0.568851132333299 -0.8223909844141295 -0.5688511323332968 -0.005828663933515146 0.006891148943555467
-0.4597599999999993 -0.004391511840105009 0.007884675492385173 -0.8224058472643881 -0.5688296513103974 -0.8224058472643848 -0.5688296513103952 -0.005828251179720897 0.006890932699119702
-0.45968999999999927 -0.0043910430930956075 0.007884442464878924 -0.8224207095575571 -0.5688081698932305 -0.8224207095575546 -0.5688081698932287 -0.005827838432054566 0.006890716427088308
-0.45961999999999925 -0.0043905743544189356 0.007884209405917768 -0.8224355712936506 -0.5687866880817831 -0.8224355712936482 -0.5687866880817813 -0.005827425690515449 0.006890500127460847
-0.4595500000000001 -0.004390105624076474 0.007883976315499896 -0.8224504324726368 -0.5687652058760992 -0.8224504324726344 -0.5687652058760976 -0.005827012955103083 0.006890283800236473
-0.4594800000000001 -0.004389636902069987 0.007883743193623335 -0.8224652930945161 -0.5687437232761782 -0.8224652930945137 -0.5687437232761764 -0.005826600225816937 0.006890067445414473
-0.4594100000000001 -0.004389168188401335 0.007883510040286 -0.8224801531592871 -0.5687222402820199 -0.8224801531592846 -0.5687222402820182 -0.005826187502656523 0.006889851062994213
-0.4593400000000001 -0.004388699483071887 0.007883276855486177 -0.8224950126669293 -0.5687007568936544 -0.822495012666926 -0.5687007568936521 -0.005825774785621221 0.006889634652974873
-0.45927000000000007 -0.004388230786083371 0.00788304363922185 -0.8225098716174326 -0.5686792731110935 -0.8225098716174294 -0.5686792731110912 -0.005825362074710548 0.006889418215355818
-0.45920000000000005 -0.004387762097437676 0.00788281039149096 -0.822524730010805 -0.568657788934325 -0.8225247300108025 -0.5686577889343233 -0.0058249493699238306 0.006889201750136428
-0.45913000000000004 -0.004387293417136274 0.007882577112291678 -0.8225395878470275 -0.5686363043633769 -0.8225395878470251 -0.5686363043633752 -0.0058245366712606625 0.006888985257315898
-0.45906 -0.004386824745180909 0.007882343801622003 -0.8225544451260883 -0.5686148193982632 -0.8225544451260858 -0.5686148193982614 -0.00582412397872034 0.00688876873689357
-0.45899 -0.004386356081573209 0.007882110459480049 -0.8225693018479777 -0.5685933340389989 -0.8225693018479753 -0.5685933340389971 -0.005823711292302584 0.006888552188868553
-0.45892 -0.004385887426314898 0.007881877085863786 -0.8225841580126952 -0.5685718482855844 -0.8225841580126919 -0.5685718482855822 -0.005823298612006496 0.006888335613240463
-0.45885 -0.004385418779407725 0.007881643680771223 -0.8225990136202295 -0.5685503621380323 -0.8225990136202261 -0.56855036213803 -0.005822885937831866 0.006888119010008219
-0.45877999999999997 -0.004384950140853176 0.007881410244200566 -0.8226138686705693 -0.5685288755963582 -0.8226138686705661 -0.5685288755963559 -0.005822473269777921 0.006887902379171341
-0.45870999999999995 -0.004384481510653117 0.007881176776149685 -0.8226287231637155 -0.5685073886605617 -0.8226287231637123 -0.5685073886605595 -0.0058220606078441105 0.006887685720729104
-0.45863999999999994 -0.0043840128888091405 0.007880943276616653 -0.8226435770996464 -0.5684859013306716 -0.8226435770996439 -0.5684859013306698 -0.0058216479520298535 0.006887469034680747
-0.4585699999999999 -0.004383544275322892 0.007880709745599597 -0.8226584304783521 -0.5684644136067027 -0.8226584304783496 -0.568464413606701 -0.005821235302334764 0.006887252321025499
-0.4584999999999999 -0.0043830756701960585 0.007880476183096431 -0.8226732832998419 -0.5684429254886406 -0.8226732832998387 -0.5684429254886384 -0.00582082265875813 0.006887035579762677
-0.4584299999999999 -0.004382607073430287 0.007880242589105305 -0.8226881355640947 -0.5684214369765128 -0.8226881355640915 -0.5684214369765106 -0.005820410021299329 0.006886818810891729
-0.4583599999999999 -0.004382138485027303 0.007880008963624173 -0.8227029872710995 -0.5683999480703349 -0.822702987271097 -0.5683999480703332 -0.00581999738995797 0.006886602014411637
-0.45828999999999986 -0.00438166990498884 0.007879775306651012 -0.8227178384208476 -0.5683784587701216 -0.8227178384208442 -0.5683784587701194 -0.005819584764733297 0.006886385190321903
-0.4582199999999998 -0.004381201333316516 0.007879541618183938 -0.822732689013336 -0.5683569690758705 -0.8227326890133335 -0.5683569690758689 -0.005819172145624864 0.006886168338621702
-0.45814999999999984 -0.004380732770011915 0.007879307898220967 -0.8227475390485557 -0.5683354789875995 -0.8227475390485525 -0.5683354789875973 -0.00581875953263211 0.006885951459310295
-0.4580799999999998 -0.004380264215076781 0.00787907414676009 -0.8227623885264952 -0.5683139885053192 -0.8227623885264926 -0.5683139885053174 -0.005818346925754371 0.006885734552387052
-0.4580099999999998 -0.004379795668512855 0.007878840363799324 -0.8227772374471548 -0.5682924976290326 -0.8227772374471515 -0.5682924976290302 -0.005817934324991157 0.006885517617851092
-0.45793999999999985 -0.004379327130321721 0.00787860654933668 -0.8227920858105129 -0.5682710063587669 -0.8227920858105104 -0.5682710063587652 -0.005817521730341855 0.006885300655701853
-0.4578699999999998 -0.004378858600505124 0.007878372703370147 -0.8228069336165695 -0.5682495146945228 -0.8228069336165662 -0.5682495146945206 -0.0058171091418058206 0.006885083665938504
-0.45779999999999976 -0.004378390079064531 0.007878138825897893 -0.8228217808653134 -0.5682280226363138 -0.822821780865311 -0.568228022636312 -0.00581669655938254 0.0068848666485603685
-0.45772999999999975 -0.0043779215660019475 0.00787790491691772 -0.8228366275567256 -0.5682065301841698 -0.8228366275567224 -0.5682065301841674 -0.005816283983071287 0.00688464960356674
-0.4576599999999998 -0.00437745306131882 0.007877670976427728 -0.8228514736908228 -0.5681850373380604 -0.8228514736908195 -0.568185037338058 -0.00581587141287179 0.006884432530956754
-0.4575899999999997 -0.0043769845650168905 0.007877437004425922 -0.822866319267566 -0.5681635440980446 -0.8228663192675627 -0.5681635440980424 -0.005815458848783139 0.006884215430729748
-0.4575199999999997 -0.004376516077097895 0.007877203000910273 -0.8228811642869747 -0.5681420504640933 -0.8228811642869713 -0.5681420504640909 -0.005815046290804884 0.006883998302885104
-0.4574499999999997 -0.004376047597563424 0.007876968965878814 -0.8228960087490186 -0.5681205564362488 -0.8228960087490154 -0.5681205564362466 -0.005814633738936336 0.006883781147421944
-0.4573799999999997 -0.004375579126415204 0.007876734899329515 -0.8229108526537053 -0.5680990620144977 -0.8229108526537021 -0.5680990620144954 -0.005814221193177104 0.0068835639643394795
-0.45730999999999966 -0.004375110663654685 0.007876500801260473 -0.8229256960010163 -0.5680775671988679 -0.8229256960010128 -0.5680775671988656 -0.005813808653526368 0.006883346753637163
-0.45723999999999965 -0.0043746422092838895 0.007876266671669551 -0.8229405387909401 -0.5680560719893742 -0.8229405387909369 -0.5680560719893719 -0.005813396119983669 0.006883129515314125
-0.45716999999999963 -0.004374173763304397 0.00787603251055475 -0.8229553810234861 -0.5680345763860029 -0.8229553810234828 -0.5680345763860005 -0.00581298359254827 0.006882912249369667
-0.4570999999999996 -0.004373705325717651 0.007875798317914165 -0.822970222698623 -0.5680130803887956 -0.8229702226986196 -0.5680130803887934 -0.005812571071219752 0.006882694955802978
-0.4570299999999996 -0.004373236896525527 0.007875564093745705 -0.8229850638163517 -0.5679915839977525 -0.8229850638163484 -0.5679915839977502 -0.0058121585559972825 0.006882477634613486
-0.4569599999999996 -0.004372768475729765 0.007875329838047344 -0.82299990437667 -0.5679700872128755 -0.8229999043766659 -0.5679700872128727 -0.005811746046880491 0.006882260285800192
-0.4568899999999996 -0.004372300063331923 0.00787509555081706 -0.8230147443795676 -0.5679485900341769 -0.8230147443795642 -0.5679485900341745 -0.005811333543868621 0.006882042909362595
-0.45681999999999956 -0.004371831659333611 0.00787486123205293 -0.8230295838250249 -0.5679270924616854 -0.8230295838250214 -0.567927092461683 -0.00581092104696112 0.006881825505299757
-0.45674999999999955 -0.004371363263736668 0.007874626881752785 -0.8230444227130405 -0.5679055944954021 -0.8230444227130371 -0.5679055944953999 -0.005810508556157247 0.0068816080736111875
-0.45667999999999953 -0.004370894876542599 0.007874392499914815 -0.8230592610436139 -0.5678840961353271 -0.8230592610436098 -0.5678840961353243 -0.005810096071456556 0.006881390614295809
-0.4566099999999995 -0.004370426497753194 0.00787415808653677 -0.8230740988167143 -0.5678625973815021 -0.8230740988167209 -0.5678625973814856 -0.005809683592858407 0.006881173127353029
-0.4565399999999995 -0.004369958127370069 0.00787392364161674 -0.8230889360323612 -0.5678410982338996 -0.8230889360323579 -0.5678410982338973 -0.005809271120362081 0.006880955612782161
-0.4564699999999995 -0.004369489765394951 0.007873689165152669 -0.8231037726905241 -0.5678195986925625 -0.8231037726905208 -0.5678195986925602 -0.005808858653967066 0.006880738070582299
-0.4563999999999995 -0.004369021411829542 0.007873454657142457 -0.8231186087912128 -0.5677980987574759 -0.8231186087912095 -0.5677980987574736 -0.005808446193672595 0.00688052050075293
-0.45632999999999946 -0.004368553066675308 0.00787322011758425 -0.8231334443343962 -0.5677765984286837 -0.8231334443344018 -0.5677765984286666 -0.005808033739478233 0.006880302903292968
-0.45625999999999944 -0.004368084729934236 0.007872985546475808 -0.8231482793200929 -0.5677550977061557 -0.8231482793200896 -0.5677550977061535 -0.005807621291383209 0.00688008527820194
-0.45618999999999943 -0.004367616401607771 0.007872750943815222 -0.8231631137482645 -0.5677335965899513 -0.8231631137482603 -0.5677335965899485 -0.005807208849386868 0.006879867625478974
-0.4561199999999994 -0.004367148081697622 0.007872516309600418 -0.8231779476189279 -0.5677120950800403 -0.8231779476189238 -0.5677120950800374 -0.005806796413488662 0.0068796499451233666
-0.4560499999999994 -0.00436667977020551 0.007872281643829325 -0.8231927809320639 -0.5676905931764513 -0.8231927809320607 -0.5676905931764491 -0.0058063839836879705 0.006879432237134282
-0.4559799999999994 -0.0043662114671331525 0.007872046946499888 -0.8232076136876617 -0.5676690908791998 -0.8232076136876576 -0.5676690908791969 -0.0058059715599840574 0.006879214501511037
-0.45590999999999937 -0.004365743172482122 0.007871812217610094 -0.8232224458857097 -0.5676475881882994 -0.8232224458857064 -0.5676475881882972 -0.005805559142376446 0.006878996738252733
-0.45583999999999936 -0.004365274886254157 0.007871577457157901 -0.8232372775262191 -0.5676260851037359 -0.823237277526215 -0.5676260851037331 -0.005805146730864289 0.006878778947358797