! Touchstone file exported from HFSS 2024.1.0
!        File:           C:/Users/alex_0000/Desktop/hfss_resonance_simulator (1).aedt
!        Generated:      06:27:55 PM Jun  4, 2025
!        Design:         hfssO1XZ3E2
!        Project:        hfss_resonance_simulator (1)
!        Setup:          Setup1
!        Solution:       Sweep
!
! Created with skrf (http://scikit-rf.org).
# GHz S RI R 50.0 
! Port[1] = 1
! Port[2] = 2
!freq ReS11 ImS11 ReS21 ImS21 ReS12 ImS12 ReS22 ImS22
5.815602884000015 -0.002982957857234623 0.006841420014664474 -0.9065469071033323 -0.42203910083125545 -0.9065469071033377 -0.422039100831258 -0.003315042036144062 0.006686813430790347
5.817352884000015 -0.002992603030580799 0.006847713520225136 -0.9065630011236112 -0.422004358537522 -0.9065630011236165 -0.4220043585375245 -0.0033131358007321963 0.006698499431741157
5.819102884000015 -0.003002390444915512 0.006854102640931736 -0.9065791653117184 -0.42196945913832185 -0.9065791653117248 -0.4219694591383248 -0.003311207057999672 0.00671035671598369
5.820852884000016 -0.003012323142088161 0.006860589429708324 -0.9065954011777236 -0.42193439927264187 -0.9065954011777219 -0.42193439927266013 -0.003309255318769958 0.006722388950630457
5.822602884000016 -0.0030224042513160806 0.006867175998684926 -0.9066117102749253 -0.42189917548278666 -0.9066117102749307 -0.42189917548278916 -0.003307280079613552 0.00673459990827416
5.8243528840000165 -0.003032636992348382 0.006873864521314949 -0.9066280942014576 -0.4218637842107756 -0.9066280942014631 -0.4218637842107781 -0.003305280822320956 0.006746993470700998
5.826102884000017 -0.0030430246787555727 0.006880657234646178 -0.9066445546018825 -0.42182822179477153 -0.906644554601888 -0.4218282217947741 -0.003303257013366436 0.0067595736329819625
5.827852884000017 -0.003053570721377538 0.00688755644165088 -0.9066610931689083 -0.4217924844652041 -0.9066610931689146 -0.42179248446520706 -0.003301208103328232 0.0067723445075487
5.829602884000018 -0.0030642786319211774 0.006894564513663082 -0.9066777116451449 -0.42175656834083275 -0.9066777116451503 -0.4217565683408353 -0.00329913352629203 0.006785310328559222
5.831352884000018 -0.0030751520267059546 0.006901683892963032 -0.9066944118249818 -0.42172046942451674 -0.9066944118249872 -0.4217204694245193 -0.003297032699236555 0.006798475456463009
5.833102884000018 -0.003086194630606765 0.006908917095407509 -0.9067111955565098 -0.4216841835988984 -0.9067111955565152 -0.421684183598901 -0.003294905021374282 0.006811844382696712
5.8348528839999965 -0.0030974102811340753 0.006916266713273446 -0.906728064743533 -0.4216477066218693 -0.9067280647435384 -0.42164770662187184 -0.003292749873471649 0.006825421734673119
5.836602883999997 -0.0031088029327500082 0.0069237354181274965 -0.9067450213477263 -0.42161103412172446 -0.9067450213477317 -0.421611034121727 -0.0032905666171369136 0.006839212280983058
5.838352883999997 -0.003120376661335029 0.006931325963924519 -0.9067620673907918 -0.4215741615922929 -0.9067620673907972 -0.4215741615922954 -0.0032883545940727327 0.006853220936765358
5.8401028839999976 -0.0031321356689004197 0.006939041190181589 -0.9067792049568313 -0.421537084387616 -0.9067792049568367 -0.42153708438761855 -0.003286113125294511 0.006867452769408963
5.841852883999998 -0.003144084288492966 0.006946884025341011 -0.9067964361947275 -0.4214997977165687 -0.9067964361947329 -0.4214997977165712 -0.0032838415103115526 0.006881913004527613
5.843602883999998 -0.0031562269893533512 0.006954857490269297 -0.9068137633207028 -0.42146229663709955 -0.9068137633207092 -0.4214622966371025 -0.0032815390262685056 0.006896607032131237
5.845352883999999 -0.0031685683823024823 0.006962964701941964 -0.9068311886209857 -0.42142457605023537 -0.9068311886209921 -0.42142457605023836 -0.0032792049270466013 0.006911540413162056
5.847102883999999 -0.003181113225392368 0.006971208877291574 -0.9068487144545779 -0.4213866306938267 -0.9068487144545834 -0.4213866306938292 -0.003276838442319932 0.006926718886318702
5.848852883999999 -0.0031938664298376933 0.00697959333723773 -0.9068663432561668 -0.42134845513598684 -0.9068663432561732 -0.4213484551359898 -0.0032744387765650147 0.006942148375261257
5.850602884 -0.0032068330662182233 0.006988121510939498 -0.9068840775392147 -0.4213100437681423 -0.9068840775392202 -0.4213100437681448 -0.0032720051080245153 0.0069578349960334575
5.852352884 -0.0032200183710046687 0.006996796940227847 -0.9069019198991425 -0.42127139079783166 -0.9069019198991479 -0.42127139079783416 -0.0032695365876137133 0.006973785065004359
5.854102884 -0.003233427753391619 0.007005623284285927 -0.9069198730167222 -0.4212324902410643 -0.9069198730167276 -0.4212324902410668 -0.0032670323377794906 0.006990005107161312
5.855852884000001 -0.0032470668024862214 0.007014604324525392 -0.9069379396616039 -0.42119333591435787 -0.9069379396616093 -0.4211933359143604 -0.0032644914512931166 0.007006501864686518
5.857602884000001 -0.0032609412948380948 0.007023743969778459 -0.9069561226960008 -0.42115392142642466 -0.9069561226960062 -0.4211539214264272 -0.0032619129899884853 0.007023282306196346
5.8593528840000015 -0.0032750572023811392 0.007033046261640376 -0.9069744250786506 -0.4211142401692192 -0.906974425078656 -0.4211142401692217 -0.003259295983430031 0.00704035363624558
5.861102884000002 -0.0032894207007485134 0.007042515380224101 -0.9069928498688636 -0.4210742853088089 -0.9069928498688691 -0.42107428530881147 -0.0032566394275170586 0.0070577233054224435
5.862852884000002 -0.0033040381780446632 0.007052155650099817 -0.9070114002308545 -0.42103404977557485 -0.9070114002308599 -0.42103404977557735 -0.0032539422830058745 0.007075399020932475
5.864602884000003 -0.0033189162440494615 0.00706197154661816 -0.9070300794382887 -0.42099352625395037 -0.9070300794382942 -0.4209935262539529 -0.00325120347396625 0.00709338875776579
5.866352884000003 -0.0033340617399317783 0.007071967702517396 -0.9070488908790179 -0.4209527071717091 -0.9070488908790233 -0.4209527071717116 -0.003248421886139249 0.007111700770415511
5.868102884000004 -0.0033494817484519958 0.007082148914912065 -0.9070678380601565 -0.42091158468849055 -0.9070678380601619 -0.42091158468849305 -0.003245596365227775 0.007130343605213723
5.869852884000004 -0.003365183604730758 0.007092520152648688 -0.9070869246133275 -0.42087015068393807 -0.907086924613333 -0.42087015068394057 -0.003242725715068497 0.0071493261133656425
5.871602884000004 -0.0033811749075818255 0.007103086564073825 -0.9071061543002631 -0.420828396745024 -0.9071061543002685 -0.4208283967450265 -0.003239808695729634 0.007168657464677206
5.873352884000007 -0.003397463531474334 0.007113853485178936 -0.9071255310186739 -0.4207863141527671 -0.9071255310186802 -0.42078631415277007 -0.0032368440214825813 0.007188347161980505
5.875102884000005 -0.0034140576391442287 0.007124826448262808 -0.907145058808473 -0.42074389386815303 -0.9071450588084784 -0.4207438938681555 -0.003233830358670604 0.007208405056414422
5.876852884000005 -0.0034309656949090012 0.007136011191020719 -0.9071647418582598 -0.42070112651742636 -0.9071647418582652 -0.4207011265174289 -0.003230766323456887 0.007228841363545355
5.8786028840000055 -0.003448196478721818 0.0071474136661739745 -0.9071845845123123 -0.42065800237628487 -0.9071845845123186 -0.4206580023762878 -0.0032276504794409642 0.007249666680355528
5.880352884000006 -0.003465759101027369 0.007159040051641843 -0.9072045912777981 -0.4206145113535146 -0.9072045912778035 -0.4206145113535171 -0.003224481335141795 0.0072708920032145425
5.882102884000006 -0.003483663018452511 0.007170896761282763 -0.9072247668325422 -0.4205706429733863 -0.9072247668325476 -0.4205706429733888 -0.003221257341327387 0.007292528746858313
5.883852884000007 -0.003501918050415446 0.007182990456272529 -0.9072451160331616 -0.4205263863572185 -0.907245116033167 -0.420526386357221 -0.0032179768882010964 0.007314588764531633
5.885602884000007 -0.0035205343966866424 0.007195328057137846 -0.9072656439236816 -0.42048173020382074 -0.907265643923687 -0.42048173020382323 -0.003214638302407702 0.007337084369168915
5.887352884000005 -0.0035395226559825073 0.0072079167565018585 -0.9072863557446784 -0.4204366627687543 -0.9072863557446849 -0.42043666276875724 -0.003211239843868156 0.00736002835595332
5.889102884000008 -0.0035588938456682416 0.007220764032605507 -0.9073072569429266 -0.4203911718424284 -0.907307256942932 -0.4203911718424309 -0.003207779702422269 0.007383434026177527
5.890852884000008 -0.003578659422634661 0.007233877663576662 -0.9073283531816605 -0.42034524472679646 -0.9073283531816668 -0.4203452447267994 -0.0032042559942619436 0.0074073152124363145
5.892602884000008 -0.0035988313054272966 0.007247265742695127 -0.9073496503514258 -0.42029886821070983 -0.9073496503514312 -0.42029886821071233 -0.003200666758155112 0.007431686305490785
5.894352884000009 -0.003619421897751595 0.007260936694429493 -0.9073711545816037 -0.42025202854371113 -0.9073711545816101 -0.42025202854371413 -0.0031970099514230005 0.007456562282714055
5.896102884000009 -0.003640444113396506 0.00727489929162889 -0.9073928722526446 -0.4202047114082449 -0.9073928722526501 -0.4202047114082474 -0.0031932834456709492 0.00748195873821049
5.8978528840000095 -0.0036619114027366833 0.007289162673664239 -0.9074148100090201 -0.4201569018901678 -0.9074148100090256 -0.4201569018901703 -0.0031894850222450913 0.00750789191498603
5.89960288400001 -0.003683837780896191 0.0073037363657922115 -0.9074369747730697 -0.42010858444726207 -0.9074369747730752 -0.42010858444726457 -0.003185612367397879 0.007534378738996386
5.901352884000008 -0.0037062378576920127 0.007318630299755789 -0.9074593737596619 -0.420059742875852 -0.9074593737596683 -0.42005974287585496 -0.003181663067143188 0.0075614368554309365
5.903102884000011 -0.0037291268695329484 0.0073338548356576706 -0.9074820144917884 -0.4200103602752912 -0.9074820144917939 -0.4200103602752937 -0.0031776346017695543 0.007589084667346768
5.90485288400001 -0.0037525207133521188 0.007349420785346577 -0.9075049048172327 -0.41996041900997527 -0.9075049048172381 -0.41996041900997777 -0.0031735243399839365 0.007617341376769476
5.906602884000011 -0.0037764359828116054 0.007365339437296818 -0.9075280529262454 -0.4199099006690636 -0.9075280529262508 -0.41990990066906614 -0.0031693295326802925 0.007646227028548968
5.908352884000012 -0.003800890006889732 0.0073816225831480455 -0.9075514673704491 -0.41985878602335236 -0.9075514673704547 -0.4198587860233549 -0.0031650473062608433 0.007675762557105869
5.910102884000012 -0.0038259008910591506 0.007398282546088296 -0.9075751570830072 -0.4198070549792663 -0.9075751570830135 -0.41980705497926923 -0.003160674655521552 0.00770596983634848
5.911852884000012 -0.0038514875612805357 0.007415332211115717 -0.9075991314000988 -0.4197546865298283 -0.9075991314001053 -0.4197546865298312 -0.003156208436028619 0.0077368717329225605
5.913602884000013 -0.003877669811016079 0.007432785057418662 -0.9076234000839613 -0.4197016587020409 -0.9076234000839667 -0.4197016587020434 -0.003151645355962126 0.007768492163225577
5.915352884000013 -0.0039044683514905727 0.007450655193084271 -0.9076479733474181 -0.4196479485008244 -0.9076479733474244 -0.4196479485008273 -0.0031469819673922822 0.007800856154365882
5.9171028840000135 -0.003931904865527137 0.00746895739211848 -0.9076728618802122 -0.4195935318488302 -0.9076728618802177 -0.4195935318488327 -0.003142214656903063 0.007833989909325425
5.918852884000015 -0.003960002065182078 0.0074877071342962466 -0.9076980768771525 -0.4195383835220355 -0.907698076877159 -0.4195383835220384 -0.003137339635560239 0.00786792087686943
5.920602884000014 -0.003988783753563652 0.0075069206477202605 -0.9077236300683328 -0.4194824770806058 -0.9077236300683383 -0.41948247708060843 -0.0031323529281249117 0.00790267782651215
5.922352884000015 -0.004018274891118968 0.0075266149546883866 -0.9077495337514463 -0.4194257847948632 -0.9077495337514517 -0.41942578479486575 -0.003127250361460428 0.007938290928850875
5.924102884000015 -0.004048501666861799 0.0075468079207978165 -0.9077758008266127 -0.4193682775655164 -0.9077758008266181 -0.4193682775655189 -0.00312202755207291 0.007974791842004192
5.925852884000015 -0.00407949157488556 0.007567518307865129 -0.9078024448336609 -0.4193099248381628 -0.9078024448336672 -0.41930992483816576 -0.003116679892695734 0.008012213804289429
5.927602884000016 -0.004111273496692258 0.007588765830826908 -0.9078294799923081 -0.41925069451112945 -0.9078294799923144 -0.4192506945111324 -0.0031112025378278764 0.008050591734215427
5.929352884000016 -0.004143877789815385 0.007610571219035615 -0.9078569212453692 -0.4191905528362818 -0.9078569212453755 -0.41919055283628476 -0.003105590388141948 0.008089962337896838
5.931102884000016 -0.004177336383337517 0.007632956282364678 -0.9078847843053044 -0.41912946431210474 -0.9078847843053107 -0.4191294643121076 -0.0030998380736603523 0.008130364224969076
5.932852884000017 -0.004211682880919127 0.007655943982514364 -0.9079130857044143 -0.41906739156834416 -0.9079130857044206 -0.4190673915683471 -0.0030939399355541116 0.008171838033627053
5.934602884000017 -0.0042469526720342226 0.007679558510087104 -0.9079418428490197 -0.41900429524139277 -0.907941842849026 -0.4190042952413957 -0.0030878900064769386 0.008214426565537076
5.9363528840000175 -0.0042831830521966605 0.007703825367905399 -0.9079710740779974 -0.4189401338395702 -0.9079710740780037 -0.4189401338395731 -0.0030816819892551966 0.008258174931869018
5.938102884000018 -0.004320413353028536 0.007728771461208667 -0.9080007987260607 -0.41887486359738035 -0.908000798726067 -0.4188748635973833 -0.003075309233804036 0.008303130711072958
5.939852884000018 -0.004358685083134811 0.007754425195394112 -0.9080310371922747 -0.4188084383176031 -0.9080310371922811 -0.418808438317606 -0.003068764712051554 0.008349344120011298
5.941602884000018 -0.004398042080830654 0.007780816582040251 -0.9080618110143375 -0.418740809199966 -0.9080618110143439 -0.41874080919996887 -0.003062040990722894 0.008396868199290678
5.943352883999997 -0.004438530679910667 0.007807977354057607 -0.9080931429491229 -0.41867192465523273 -0.9080931429491292 -0.41867192465523567 -0.0030551302017335705 0.008445759014689127
5.945102883999997 -0.004480199889766808 0.00783594109091464 -0.9081250570601959 -0.41860173010304585 -0.9081250570602022 -0.4186017301030488 -0.0030480240099350917 0.008496075875883816
5.9468528839999975 -0.004523101591370507 0.00786474335488157 -0.9081575788129339 -0.4185301677520047 -0.9081575788129403 -0.41853016775200763 -0.003040713577961519 0.008547881574476508
5.948602883999998 -0.0045672907506824345 0.007894421839604265 -0.9081907351781112 -0.418457176359997 -0.9081907351781175 -0.4184571763599999 -0.0030331895278486844 0.00860124264337409
5.950352883999998 -0.004612825651427055 0.00792501653220608 -0.9082245547448264 -0.41838269097268815 -0.9082245547448337 -0.4183826909726915 -0.0030254418990948166 0.008656229639649356
5.952102883999998 -0.004659768149247726 0.007956569890364567 -0.9082590678436727 -0.4183066426380292 -0.9082590678436792 -0.41830664263803213 -0.0030174601027340864 0.008712917453367762
5.953852883999999 -0.004708183949579392 0.007989127036168863 -0.9082943066814222 -0.41822895809379307 -0.9082943066814294 -0.41822895809379645 -0.0030092328710169705 0.008771385645488317
5.955602883999999 -0.004758142911905373 0.00802273596834478 -0.908330305488334 -0.4181495594255274 -0.9083303054883413 -0.4181495594255307 -0.0030007482021788857 0.008831718817714324
5.957352884 -0.004809719383270185 0.008057447795316301 -0.9083671006795976 -0.4180683636912916 -0.9083671006796039 -0.41806836369129446 -0.002991993299716504 0.008894007018130269
5.959102884 -0.004862992564521538 0.008093316991074063 -0.9084047310324739 -0.41798528250951567 -0.9084047310324802 -0.4179852825095186 -0.0029829545055585576 0.008958346186674227
5.960852884 -0.004918046912956683 0.00813040167687601 -0.9084432378809411 -0.4179002216056622 -0.9084432378809484 -0.41790022160566553 -0.0029736172263750095 0.009024838644974739
5.962602884000001 -0.004974972585758419 0.008168763931673914 -0.9084826653299398 -0.41781308031271536 -0.9084826653299471 -0.4178130803127187 -0.002963965852189809 0.00909359363596034
5.964352884000001 -0.0050338659290669096 0.008208470134800526 -0.9085230604914819 -0.41772375102007414 -0.9085230604914883 -0.417723751020077 -0.002953983666356497 0.009164727919161935
5.966102884000004 -0.005094830018315602 0.008249591344863243 -0.908564473745358 -0.41763211856434906 -0.9085644737453652 -0.4176321185643524 -0.0029436527458128275 0.009238366428428818
5.967852884000002 -0.005157975256142068 0.008292203719470717 -0.9086069590274223 -0.41753805955493933 -0.9086069590274286 -0.4175380595549423 -0.002932953850349996 0.009314643000077867
5.969602884000002 -0.005223420035254182 0.008336388980875678 -0.9086505741489295 -0.4174414416260164 -0.9086505741489358 -0.4174414416260193 -0.002921866299450546 0.009393701180137867
5.9713528840000025 -0.005291291474517155 0.00838223493369333 -0.9086953811509474 -0.4173421226053384 -0.9086953811509547 -0.4173421226053417 -0.0029103678351008423 0.009475695121278358
5.973102884000003 -0.0053617262379922065 0.008429836041431712 -0.9087414466983422 -0.4172399495890316 -0.9087414466983486 -0.4172399495890345 -0.0028984344685941015 0.009560790580710715
5.974852884000003 -0.005434871447971877 0.00847929406984506 -0.908788842518649 -0.41713475790954563 -0.9087888425186562 -0.41713475790954896 -0.0028860403091521838 0.00964916603323283
5.976602884000004 -0.0055108857048202725 0.008530718806528533 -0.9088376458919016 -0.4170263699821874 -0.9088376458919089 -0.4170263699821907 -0.002873157371807045 0.009741013914620627
5.978352884000004 -0.005589940228606332 0.008584228866995622 -0.9088879401983955 -0.4169145940132993 -0.9088879401984028 -0.4169145940133026 -0.002859755361535219 0.009836542014008897
5.980102884000002 -0.005672220139667169 0.008639952600207206 -0.9089398155326643 -0.41679922255010154 -0.9089398155326789 -0.4167992225500887 -0.002845801430145088 0.009935975036171836
5.981852884000005 -0.005757925898378028 0.008698029107810508 -0.9089933693930825 -0.4166800308493225 -0.9089933693930897 -0.4166800308493258 -0.002831259901849671 0.010039556358572814
5.983602884000005 -0.005847274927653143 0.008758609394108564 -0.9090487074581802 -0.4165567750376413 -0.9090487074581868 -0.41655677503764427 -0.0028160919627108444 0.01014755001202196
5.985352884000005 -0.005940503445798159 0.008821857666927963 -0.9091059444628028 -0.4164291900319779 -0.90910594446281 -0.41642919003198126 -0.0028002553082643687 0.010260242919026252
5.987102884000006 -0.006037868542279861 0.008887952812790617 -0.909165205189281 -0.41629698718256275 -0.9091652051892892 -0.41629698718256647 -0.002783703742663877 0.010377947429456798
5.988852884000006 -0.0061396505347583235 0.008957090074551484 -0.9092266255916371 -0.41615985159460106 -0.9092266255916444 -0.4161598515946044 -0.0027663867213186064 0.010501004201181937
5.9906028840000065 -0.006246155652971205 0.00902948296418626 -0.9092903540741687 -0.41601743907617345 -0.909290354074176 -0.4160174390761767 -0.0027482488276028214 0.010629785481002397
5.992352884000007 -0.006357719103456724 0.009105365450674117 -0.9093565529497628 -0.4158693726499783 -0.909356552949771 -0.415869372649982 -0.0027292291722144854 0.010764698853183296
5.994102884000007 -0.006474708579802447 0.009184994469914621 -0.9094254001079657 -0.4157152385546996 -0.9094254001079729 -0.41571523855470294 -0.002709260701578943 0.010906191534374459
5.995852884000008 -0.006597528295815351 0.009268652813304986 -0.9094970909289789 -0.4155545816465016 -0.909497090928987 -0.4155545816465054 -0.002688269398790135 0.011054755310395407
5.997602884000008 -0.006726623634785673 0.009356652463661085 -0.9095718404869718 -0.41538690009288726 -0.90957184048698 -0.41538690009289103 -0.0026661733572013488 0.01121093223044534
5.999352884000008 -0.006862486527534791 0.009449338461069639 -0.9096498860948686 -0.41521163922887494 -0.9096498860948767 -0.41521163922887866 -0.0026428817022498795 0.011375321196383969
6.001102884000009 -0.007005661696033133 0.009547093399918789 -0.9097314902541396 -0.41502818441670175 -0.9097314902541541 -0.4150281844166893 -0.0026182933318615828 0.011548585616901936
6.002852884000008 -0.0071567539297029865 0.00965034268025601 -0.9098169440867517 -0.4148358527154128 -0.90981694408676 -0.41483585271541656 -0.002592295438805256 0.011731462332358725
6.004602884000009 -0.007316436599155693 0.009759560665702525 -0.9099065713437305 -0.4146338831223916 -0.9099065713437388 -0.4146338831223953 -0.0025647617696988715 0.01192477206351019
6.00635288400001 -0.007485461660147442 0.009875277935739408 -0.9100007331066353 -0.4144214250926911 -0.9100007331066444 -0.41442142509269525 -0.0025355505644126374 0.012129431696266216
6.00810288400001 -0.00766467146114659 0.009998089865935136 -0.9100998333257596 -0.4141975249709027 -0.9100998333257687 -0.4141975249709068 -0.002504502105290566 0.012346468790927049
6.0098528840000105 -0.007855012745517942 0.010128666829224572 -0.910204325373973 -0.41396110987901846 -0.9102043253739893 -0.4139611098790068 -0.0024714357874990257 0.012577038799453594
6.011602884000011 -0.008057553339589754 0.010267766386433567 -0.9103147198403122 -0.4137109684857829 -0.9103147198403213 -0.4137109684857871 -0.002436146597696277 0.012822445600228041
6.013352884000011 -0.008273502147154523 0.010416247934294926 -0.9104315938456574 -0.4134457279299923 -0.9104315938456737 -0.41344572792998063 -0.0023984008573534753 0.013084166120283318
6.015102884000012 -0.008504233241028577 0.010575090408465885 -0.9105556022388189 -0.4131638259693859 -0.910555602238828 -0.41316382596939 -0.0023579310451881134 0.01336388002653093
6.016852884000013 -0.008751315065338341 0.01074541381184695 -0.9106874911309094 -0.4128634771618812 -0.9106874911309185 -0.4128634771618853 -0.002314429458547053 0.013663505747424596
6.018602884000012 -0.009016546059858563 0.010928505567963842 -0.9108281143581092 -0.4125426315318716 -0.9108281143581192 -0.41254263153187615 -0.002267540398624159 0.013985244456669429
6.020352884000013 -0.009301998416333314 0.011125853010208919 -0.9109784536389597 -0.4121989236990486 -0.9109784536389761 -0.41219892369903655 -0.0022168504636819165 0.01433163415099684
6.022102884000013 -0.009610072217902237 0.01133918373983751 -0.9111396434304561 -0.4118296097996099 -0.9111396434304735 -0.4118296097995982 -0.0021618763948160528 0.014705616631997277
6.023852884000016 -0.00994356295390213 0.01157051616967005 -0.9113130018113622 -0.4114314886402311 -0.9113130018113724 -0.41143148864023565 -0.002102049724996066 0.015110621132178259
6.025602884000014 -0.01030574643017697 0.01182222338279382 -0.9115000691680324 -0.4110008022875152 -0.9115000691680424 -0.4110008022875197 -0.00203669720888832 0.015550669619085581
6.027352884000014 -0.010700486537326276 0.012097114585402644 -0.9117026570813306 -0.4105331095518376 -0.9117026570813416 -0.4105331095518425 -0.0019650156204129464 0.01603051062793042
6.0291028840000145 -0.0111323733915098 0.012398540079040727 -0.9119229106934265 -0.4100231233342274 -0.9119229106934373 -0.41002312333423235 -0.0018860389387613738 0.016555791065503703
6.030852884000015 -0.011606902324153498 0.012730528072201328 -0.9121633890942118 -0.40946449919416633 -0.9121633890942298 -0.4094644991941554 -0.0017985951099553537 0.017133279175484694
6.032602884000015 -0.012130708539468042 0.013097965193655694 -0.9124271700999219 -0.4088495571769549 -0.9124271700999338 -0.40884955717696025 -0.0017012483213747025 0.01777115736478203
6.034352884000016 -0.01271187873641596 0.013506837899916456 -0.9127179885044256 -0.40816891096332847 -0.9127179885044384 -0.4081689109633342 -0.0015922208184375888 0.0184794118305199
6.036102884000016 -0.013360370838388381 0.013964560157383128 -0.9130404209567211 -0.4074109662083634 -0.9130404209567409 -0.4074109662083533 -0.0014692853178113548 0.019270358488665772
6.037852884000019 -0.014088588252713943 0.014480425626185343 -0.9134001368622983 -0.40656123089184204 -0.913400136862311 -0.40656123089184776 -0.0013296143258088044 0.02015936426279662
6.039602884000016 -0.014912179343462683 0.015066243223334327 -0.9138042444865573 -0.40560135004508674 -0.9138042444865779 -0.405601350045077 -0.0011695649067766524 0.021165853958289127
6.041352884000017 -0.015851172311368227 0.01573724904858744 -0.9142617771202535 -0.4045077272158304 -0.9142617771202745 -0.4045077272158202 -0.0009843643788180214 0.022314743915491982
6.043102884000017 -0.016931621886762883 0.016513445690298965 -0.9147843899724221 -0.4032495104812562 -0.9147843899724437 -0.40324951048124674 -0.0007676397116478169 0.023638529446590905
6.044852884000018 -0.01818805880402807 0.01742162213426081 -0.915387382168984 -0.4017855730010755 -0.9153873821690064 -0.40178557300106643 -0.0005106925148472795 0.025180402334376233
6.046602884000018 -0.01966723860899125 0.018498494599888775 -0.9160912347135307 -0.4000598496842732 -0.916091234713554 -0.40005984968426456 -0.0002013447867563557 0.026999044203710888
6.0483528840000185 -0.021434070973009093 0.01979576686969806 -0.9169239940218917 -0.3979938823732621 -0.916923994021916 -0.3979938823732538 0.00017797032689512786 0.0291762495120918
6.050102883999997 -0.023581365900062982 0.021388631348954527 -0.9179250928999125 -0.3954744097485172 -0.9179250928999386 -0.3954744097485096 0.0006535122426218 0.03182953789144775
6.051852883999997 -0.026246602504273082 0.02339078273259196 -0.9191517198927762 -0.3923316847557042 -0.9191517198928042 -0.3923316847556973 0.0012662667127041026 0.035134027908565416
6.053602883999997 -0.029642414402298693 0.025982599657399876 -0.9206899294978329 -0.38829929900656385 -0.9206899294978637 -0.388299299006558 0.002083715974250882 0.03936260108850423
6.055352883999998 -0.03411590033015973 0.029468221391776128 -0.9226750684750834 -0.3829341009007944 -0.9226750684751167 -0.38293410090078955 0.003224767728116402 0.044965051022500396
6.057102883999998 -0.04027432951304311 0.034403013148235954 -0.9253316330373321 -0.375440924186499 -0.9253316330373682 -0.375440924186495 0.004918454204143299 0.05273874820469611
6.058852884000001 -0.04928302484626044 0.04191802267514022 -0.929055868695043 -0.3642381294289797 -0.9290558686950946 -0.36423812942896283 0.007663256990305459 0.06424311146688998
6.060602883999999 -0.06368675479383401 0.05471451015618147 -0.9345907129730097 -0.34567438985104215 -0.9345907129730728 -0.34567438985100984 0.012756594051814334 0.08298727463537921
6.062352883999999 -0.09021795080195456 0.0811362940125653 -0.9432683566736554 -0.30906790771815124 -0.9432683566737435 -0.3090679077181068 0.02471193494382558 0.11879203792845884
6.064102884 -0.15244943557610383 0.16370590671971127 -0.9527145354834934 -0.2056605942110522 -0.9527145354836349 -0.2056605942109087 0.07134716105746951 0.2120126115666341
6.065852884 0.18996291166996268 0.9113271212698846 -0.2650472332522883 0.25129053777072907 -0.2650472332523267 0.25129053777076554 0.8999191300671342 0.23821962369082333
6.067602884 0.24812025744159677 -0.07677020448082184 -0.7380842695329547 -0.6227171733617122 -0.7380842695327404 -0.6227171733616421 0.03390226792339557 -0.25750474410187224
6.069352884000001 0.11350447858181362 -0.05081450777691695 -0.8392482404688033 -0.5293369158627159 -0.8392482404687087 -0.5293369158626973 -0.003042293710204376 -0.1243228967172719
6.071102884000001 0.072511552691128 -0.03478395732093261 -0.8657637572951 -0.4939488821765485 -0.865763757295035 -0.49394888217655114 -0.006955009692563831 -0.08012171222893692
6.072852884000001 0.05296472003415599 -0.025613696930753875 -0.8776057381294755 -0.4757593572331595 -0.8776057381294337 -0.475759357233157 -0.007442375838167909 -0.058360418729110845
6.074602884000002 0.041561061454270465 -0.019775068268113778 -0.8842605157002181 -0.4647203859071558 -0.8842605157001754 -0.46472038590717246 -0.007285272145639995 -0.04544559962558585
6.076352884000002 0.03409781987176593 -0.015750343248626456 -0.8885119603759153 -0.45731368666584793 -0.8885119603758869 -0.4573136866658527 -0.006998468126974348 -0.03690200664570153
6.078102884000002 0.028836262647655417 -0.012813269530703239 -0.891459773660443 -0.45199977167137745 -0.8914597736604095 -0.45199977167139926 -0.0067061352227011295 -0.030834063916207903
6.079852884000003 0.024928433890996884 -0.010577402774959135 -0.893623200903531 -0.4480003223567446 -0.8936232009035087 -0.44800032235675336 -0.006439703182918797 -0.026302855964935472
6.081602884000003 0.02191191969635083 -0.008819253737770464 -0.8952786569477867 -0.44488001877511174 -0.8952786569477666 -0.44488001877512107 -0.006204799835097238 -0.02279064745523321
6.0833528840000035 0.019513237825002187 -0.007400904741629634 -0.8965865833221511 -0.4423765033099591 -0.8965865833221327 -0.4423765033099693 -0.005999570369041945 -0.019988662905082687
6.085102884000004 0.0175603429695738 -0.006232744557154338 -0.8976464057940953 -0.44032229821525914 -0.8976464057940777 -0.4403222982152698 -0.005820276260052729 -0.01770137679817286
6.086852884000004 0.015939610537791624 -0.005254066953327481 -0.8985229824895886 -0.43860549495709655 -0.8985229824895739 -0.43860549495710865 -0.005663072596442399 -0.015798973922688045
6.088602884000005 0.014572990306237585 -0.004422305956395947 -0.8992604072188052 -0.43714848299081804 -0.8992604072187905 -0.43714848299083015 -0.005524536333557442 -0.014191894067798645
6.090352884000005 0.013405099835115132 -0.0037067406361521262 -0.899889694255617 -0.43589575047660595 -0.8998896942556032 -0.4358957504766185 -0.005401771610408387 -0.012816355630703729
6.092102884000005 0.012395555059227233 -0.0030846478041339697 -0.9004332884740976 -0.4348065442517028 -0.9004332884740847 -0.4348065442517158 -0.005292376149789094 -0.011625705608387797
6.093852884000006 0.011514216484876251 -0.0025388610921163323 -0.9009078311778282 -0.4338502722198759 -0.9009078311778159 -0.4338502722198901 -0.005194369681565926 -0.010585032769906832